 Gaussian 16, Revision C.01,
 Gaussian 16:  EM64L-G16RevC.01  3-Jul-2019

 ------------------------------------------------------
 # PBE1PBE/aug-cc-pVDZ opt freq EmpiricalDispersion=GD3
 ------------------------------------------------------

 ----
 blah
 ----
 Symbolic Z-matrix:
 Charge = -1 Multiplicity = 1

 SCF Done:  E(RPBE1PBE) =  -909.655203253     A.U. after   17 cycles
 SCF Done:  E(RPBE1PBE) =  -909.665431316     A.U. after   13 cycles
 SCF Done:  E(RPBE1PBE) =  -909.655553021     A.U. after   14 cycles
 SCF Done:  E(RPBE1PBE) =  -909.666166857     A.U. after   13 cycles
 SCF Done:  E(RPBE1PBE) =  -909.667841492     A.U. after   13 cycles
 SCF Done:  E(RPBE1PBE) =  -909.669988917     A.U. after   12 cycles
 SCF Done:  E(RPBE1PBE) =  -909.669029397     A.U. after   13 cycles
 SCF Done:  E(RPBE1PBE) =  -909.670185403     A.U. after   11 cycles
 SCF Done:  E(RPBE1PBE) =  -909.670231464     A.U. after   11 cycles
 SCF Done:  E(RPBE1PBE) =  -909.670339432     A.U. after   11 cycles
 SCF Done:  E(RPBE1PBE) =  -909.670344022     A.U. after    9 cycles
 SCF Done:  E(RPBE1PBE) =  -909.670349373     A.U. after    9 cycles
 SCF Done:  E(RPBE1PBE) =  -909.670351380     A.U. after    9 cycles
 SCF Done:  E(RPBE1PBE) =  -909.670352360     A.U. after    9 cycles
 SCF Done:  E(RPBE1PBE) =  -909.670352850     A.U. after    8 cycles
 SCF Done:  E(RPBE1PBE) =  -909.670353164     A.U. after    8 cycles
 SCF Done:  E(RPBE1PBE) =  -909.670353238     A.U. after    8 cycles
 Optimization completed.
    -- Stationary point found.
 Normal termination of Gaussian 16 at Thu Oct 24 06:28:06 2024.

 ----------------------------------------------------------------------
 #N Geom=AllCheck Guess=TCheck SCRF=Check GenChk RPBE1PBE/Aug-CC-pVDZ F
 req
 ----------------------------------------------------------------------

 Structure from the checkpoint file:  "/scr/Gau-39518.chk"
 ----
 blah
 ----
 Charge = -1 Multiplicity = 1

                         Standard orientation:
 ---------------------------------------------------------------------
 Center     Atomic      Atomic             Coordinates (Angstroms)
 Number     Number       Type             X           Y           Z
 ---------------------------------------------------------------------
      1          6           0        2.309170   -0.173039   -0.606781
      2          6           0        1.202562   -1.244022   -0.612663
      3          6           0        0.332347   -0.931252    0.612431
      4          8           0        1.749884   -2.549720   -0.407187
      5          1           0        0.609444   -1.212716   -1.533345
      6          8           0        0.983873    0.082406    1.359195
      7          1           0        0.284964   -1.848053    1.220881
      8          7           0       -1.027242   -0.561439    0.335311
      9          6           0        2.247737    0.421072    0.808031
     10          1           0        2.083458    0.594163   -1.350323
     11          8           0        3.589911   -0.687985   -0.935054
     12          6           0        2.428308    1.928629    0.873363
     13          1           0        3.046769   -0.046790    1.419980
     14          8           0        1.650402    2.649916   -0.038023
     15          1           0        3.490870    2.150168    0.670646
     16          1           0        2.218309    2.237808    1.915806
     17          1           0        3.794775   -1.357685   -0.272120
     18          1           0        2.286704   -2.743597   -1.182814
     19          1           0        0.845082    2.133993   -0.280409
     20          6           0       -2.060717   -1.199161    0.969449
     21          6           0       -3.339072   -0.847719    0.732085
     22          6           0       -3.621419    0.237063   -0.220563
     23          7           0       -2.553653    0.876495   -0.799899
     24          6           0       -1.301383    0.526081   -0.544151
     25          1           0       -1.774991   -1.996408    1.657956
     26          1           0       -4.168153   -1.351572    1.224684
     27          8           0       -4.793558    0.549225   -0.474426
     28          8           0       -0.285035    1.072332   -1.042759
 ---------------------------------------------------------------------

 SCF Done:  E(RPBE1PBE) =  -909.670353238     A.U. after    1 cycles

 The electronic state is 1-A.
 Alpha  occ. eigenvalues --  -19.15119 -19.14668 -19.13271 -19.08735 -19.04590
 Alpha  occ. eigenvalues --  -19.02582 -14.32191 -14.21953 -10.22086 -10.21159
 Alpha  occ. eigenvalues --  -10.19071 -10.18515 -10.18302 -10.17326 -10.16821
 Alpha  occ. eigenvalues --  -10.16530 -10.10268  -1.00375  -0.98012  -0.96338
 Alpha  occ. eigenvalues --   -0.93642  -0.92312  -0.89341  -0.85774  -0.76724
 Alpha  occ. eigenvalues --   -0.69574  -0.69305  -0.65597  -0.58938  -0.54831
 Alpha  occ. eigenvalues --   -0.53706  -0.51774  -0.49044  -0.46258  -0.45581
 Alpha  occ. eigenvalues --   -0.41877  -0.41014  -0.40783  -0.40058  -0.38465
 Alpha  occ. eigenvalues --   -0.35520  -0.34300  -0.34015  -0.32904  -0.32704
 Alpha  occ. eigenvalues --   -0.31770  -0.30992  -0.29987  -0.29756  -0.27190
 Alpha  occ. eigenvalues --   -0.26139  -0.24870  -0.24369  -0.23961  -0.22969
 Alpha  occ. eigenvalues --   -0.21733  -0.19388  -0.18417  -0.16117  -0.14938
 Alpha  occ. eigenvalues --   -0.12948  -0.11506  -0.10620  -0.10468
 Alpha virt. eigenvalues --    0.06613   0.08352   0.08823   0.10159   0.10632
 Alpha virt. eigenvalues --    0.11285   0.11558   0.11930   0.12553   0.13304
 Alpha virt. eigenvalues --    0.13736   0.14545   0.15083   0.15396   0.15619

 Mulliken charges:
               1
     1  C    1.002184
     2  C    0.897140
     3  C    1.183112
     4  O   -0.678307
     5  H   -0.483984
     6  O   -0.920005
     7  H   -0.362646
     8  N    0.161112
     9  C    0.546449
    10  H   -0.502475
    11  O   -0.597756
    12  C    1.144282
    13  H   -0.545827
    14  O   -0.555127
    15  H   -0.258506
    16  H   -0.240818
    17  H    0.053839
    18  H    0.085365
    19  H    0.236299
    20  C    0.558121
    21  C    0.913885
    22  C    0.480580
    23  N   -0.510620
    24  C    0.388917
    25  H   -0.817177
    26  H   -0.571325
    27  O   -0.788414
    28  O   -0.818299
 Sum of Mulliken charges =  -1.00000

 Dipole moment (field-independent basis, Debye):
    X=              9.8721    Y=             -7.1619    Z=              3.6411  Tot=             12.7282
 Quadrupole moment (field-independent basis, Debye-Ang):
   XX=           -162.6794   YY=           -116.5510   ZZ=           -106.4483
   XY=              5.2065   XZ=             -7.0512   YZ=              6.1337

  Exact polarizability:     214.079      -0.306     139.762       1.699     -10.033     121.265
 Approx polarizability:     282.740      -5.358     195.580       2.811     -21.928     182.870

                      1                      2                      3
                      A                      A                      A
 Frequencies --     42.2614                66.2527                72.2607
 Red. masses --      7.7034                 5.9153                 4.5560
 Frc consts  --      0.0081                 0.0153                 0.0140
 IR Inten    --      0.7113                 1.6797                 1.3446

                      4                      5                      6
                      A                      A                      A
 Frequencies --    111.4212               119.5125               154.4215
 Red. masses --      4.5045                 6.5832                 3.4455
 Frc consts  --      0.0329                 0.0554                 0.0484
 IR Inten    --     11.7562                13.8735                20.4279

                      7                      8                      9
                      A                      A                      A
 Frequencies --    178.2608               186.6804               223.2125
 Red. masses --      2.4528                 2.7618                 6.6789
 Frc consts  --      0.0459                 0.0567                 0.1961
 IR Inten    --     86.9210                59.0360                 7.9287

                     10                     11                     12
                      A                      A                      A
 Frequencies --    242.0713               276.4320               285.6013
 Red. masses --      4.3784                 6.8221                 4.9347
 Frc consts  --      0.1512                 0.3071                 0.2372
 IR Inten    --     24.0605                 2.2004                 3.2514

                     13                     14                     15
                      A                      A                      A
 Frequencies --    314.8241               346.4936               351.1866
 Red. masses --      5.1227                 6.2349                 5.9218
 Frc consts  --      0.2991                 0.4410                 0.4303
 IR Inten    --      9.5792                25.8256                 5.2132

                     16                     17                     18
                      A                      A                      A
 Frequencies --    417.6852               429.5023               463.8982
 Red. masses --      3.4711                 9.2974                 4.4930
 Frc consts  --      0.3568                 1.0105                 0.5697
 IR Inten    --      2.0196                 7.8626                 4.3061

                     19                     20                     21
                      A                      A                      A
 Frequencies --    545.1159               556.6326               567.0760
 Red. masses --      3.2911                 1.2916                 6.6365
 Frc consts  --      0.5762                 0.2358                 1.2574
 IR Inten    --      6.4973                 0.9163                 4.1359

                     22                     23                     24
                      A                      A                      A
 Frequencies --    594.1986               605.1528               660.4338
 Red. masses --      7.1764                 6.4616                 5.1277
 Frc consts  --      1.4929                 1.3942                 1.3177
 IR Inten    --     53.4854                 2.7883                 3.0427

                     25                     26                     27
                      A                      A                      A
 Frequencies --    718.9414               723.1204               741.2081
 Red. masses --      2.0175                 3.1750                 1.2108
 Frc consts  --      0.6144                 0.9782                 0.3919
 IR Inten    --      2.1363                 1.1042                78.3842

                     28                     29                     30
                      A                      A                      A
 Frequencies --    754.4726               773.4422               805.2017
 Red. masses --      5.9721                 6.3143                 6.1160
 Frc consts  --      2.0029                 2.2255                 2.3363
 IR Inten    --      5.7425                16.3974                37.8222

                     31                     32                     33
                      A                      A                      A
 Frequencies --    832.6367               859.8095               884.6087
 Red. masses --      3.4840                 4.2459                 4.5165
 Frc consts  --      1.4231                 1.8494                 2.0824
 IR Inten    --     33.2128                 5.1365                28.0959

                     34                     35                     36
                      A                      A                      A
 Frequencies --    905.9514               946.4370               968.7735
 Red. masses --      2.3815                 1.2915                 3.2773
 Frc consts  --      1.1516                 0.6816                 1.8122
 IR Inten    --     31.9270                 0.4608                24.6608

                     37                     38                     39
                      A                      A                      A
 Frequencies --    990.1075              1034.3521              1057.5868
 Red. masses --      3.8682                 2.4511                 3.0949
 Frc consts  --      2.2342                 1.5451                 2.0395
 IR Inten    --     10.1760                70.5289                55.2029

                     40                     41                     42
                      A                      A                      A
 Frequencies --   1075.9021              1095.3255              1114.4592
 Red. masses --      2.3376                 3.9417                 1.5201
 Frc consts  --      1.5943                 2.7862                 1.1124
 IR Inten    --     67.2525               104.1938                41.0165

                     43                     44                     45
                      A                      A                      A
 Frequencies --   1135.1547              1158.7751              1181.8146
 Red. masses --      2.8984                 3.1583                 3.0247
 Frc consts  --      2.2005                 2.4986                 2.4890
 IR Inten    --     97.6872               101.8024                91.9407

                     46                     47                     48
                      A                      A                      A
 Frequencies --   1212.4380              1238.5087              1260.4775
 Red. masses --      1.3652                 1.4163                 1.7938
 Frc consts  --      1.1824                 1.2800                 1.6791
 IR Inten    --     22.6100                57.6661                68.2126

                     49                     50                     51
                      A                      A                      A
 Frequencies --   1274.6473              1277.6379              1284.2018
 Red. masses --      1.1618                 1.5270                 1.8418
 Frc consts  --      1.1122                 1.4686                 1.7896
 IR Inten    --      5.8951                 9.9922                16.0390

                     52                     53                     54
                      A                      A                      A
 Frequencies --   1308.3150              1318.3380              1323.5996
 Red. masses --      1.2828                 1.5632                 2.8222
 Frc consts  --      1.2937                 1.6007                 2.9131
 IR Inten    --      4.1498                87.2457               119.9023

                     55                     56                     57
                      A                      A                      A
 Frequencies --   1352.0529              1354.9388              1358.2688
 Red. masses --      1.6253                 1.5732                 2.9904
 Frc consts  --      1.7505                 1.7017                 3.2505
 IR Inten    --     11.0450                46.2681                 0.7098

                     58                     59                     60
                      A                      A                      A
 Frequencies --   1388.4830              1396.7405              1437.8150
 Red. masses --      1.4638                 1.4682                 1.3530
 Frc consts  --      1.6627                 1.6876                 1.6480
 IR Inten    --     77.2002                 6.3038                15.0873

                     61                     62                     63
                      A                      A                      A
 Frequencies --   1440.0986              1470.7813              1475.4311
 Red. masses --      1.7210                 1.2374                 1.0972
 Frc consts  --      2.1028                 1.5771                 1.4072
 IR Inten    --      0.3871                51.8543                 3.4390

                     64                     65                     66
                      A                      A                      A
 Frequencies --   1485.9929              1617.1893              1706.8789
 Red. masses --      4.0081                 9.4713                11.1109
 Frc consts  --      5.2146                14.5943                19.0724
 IR Inten    --     73.1405              1140.4202               158.8673

                     67                     68                     69
                      A                      A                      A
 Frequencies --   1720.9485              2950.1532              2982.2587
 Red. masses --      7.8605                 1.0798                 1.0689
 Frc consts  --     13.7163                 5.5373                 5.6010
 IR Inten    --    986.9248                67.7106               168.2211

                     70                     71                     72
                      A                      A                      A
 Frequencies --   3036.5406              3049.2422              3121.4432
 Red. masses --      1.0959                 1.0849                 1.0886
 Frc consts  --      5.9533                 5.9435                 6.2491
 IR Inten    --     88.3913                35.7312                12.5271

                     73                     74                     75
                      A                      A                      A
 Frequencies --   3177.9617              3187.0356              3237.5193
 Red. masses --      1.0880                 1.0896                 1.0969
 Frc consts  --      6.4740                 6.5209                 6.7741
 IR Inten    --      1.0986                14.1707                17.4507

                     76                     77                     78
                      A                      A                      A
 Frequencies --   3378.8161              3826.5517              3853.4776
 Red. masses --      1.0728                 1.0653                 1.0658
 Frc consts  --      7.2160                 9.1901                 9.3247
 IR Inten    --   1042.1784                17.3382                29.2229

 - Thermochemistry -
 -------------------
 Temperature   298.150 Kelvin.  Pressure   1.00000 Atm.
 Atom     1 has atomic number  6 and mass  12.00000

 Molecular mass:   243.06171 amu.
 Principal axes and moments of inertia in atomic units:
                           1         2         3
     Eigenvalues --  1966.644815661.355956573.49055
           X            0.99993   0.01121  -0.00325
           Y           -0.01118   0.99989   0.00944
           Z            0.00335  -0.00941   0.99995
 This molecule is an asymmetric top.
 Rotational symmetry number  1.
 Warning -- assumption of classical behavior for rotation
           may cause significant error
 Rotational temperatures (Kelvin)      0.04404     0.01530     0.01318
 Rotational constants (GHZ):           0.91768     0.31878     0.27455
 Zero-point vibrational energy     562684.2 (Joules/Mol)
                                  134.48475 (Kcal/Mol)
 Warning -- explicit consideration of  23 degrees of freedom as
           vibrations may cause significant error
 Vibrational temperatures:     60.80    95.32   103.97   160.31   171.95
          (Kelvin)            222.18   256.48   268.59   321.15   348.29
                              397.72   410.92   452.96   498.53   505.28
                              600.96   617.96   667.45   784.30   800.87
                              815.90   854.92   870.68   950.22  1034.40
                             1040.41  1066.43  1085.52  1112.81  1158.51
                             1197.98  1237.07  1272.75  1303.46  1361.71
                             1393.85  1424.54  1488.20  1521.63  1547.98
                             1575.93  1603.46  1633.23  1667.22  1700.37
                             1744.43  1781.94  1813.55  1833.93  1838.24
                             1847.68  1882.37  1896.79  1904.36  1945.30
                             1949.45  1954.25  1997.72  2009.60  2068.70
                             2071.98  2116.13  2122.82  2138.01  2326.77
                             2455.82  2476.06  4244.61  4290.81  4368.90
                             4387.18  4491.06  4572.38  4585.43  4658.07
                             4861.36  5505.55  5544.29

 Zero-point correction=                           0.214315 (Hartree/Particle)
 Thermal correction to Energy=                    0.229002
 Thermal correction to Enthalpy=                  0.229947
 Thermal correction to Gibbs Free Energy=         0.172295
 Sum of electronic and zero-point Energies=           -909.456038
 Sum of electronic and thermal Energies=              -909.441351
 Sum of electronic and thermal Enthalpies=            -909.440407
 Sum of electronic and thermal Free Energies=         -909.498058

                     E (Thermal)             CV                S
                      KCal/Mol        Cal/Mol-Kelvin    Cal/Mol-Kelvin
 Total                  143.701             56.295            121.338
 Electronic               0.000              0.000              0.000
 Translational            0.889              2.981             42.365
 Rotational               0.889              2.981             32.659
 Vibrational            141.924             50.333             46.313
 Vibration     1          0.595              1.980              5.150
 Vibration     2          0.598              1.970              4.262
 Vibration     3          0.598              1.967              4.091
 Vibration     4          0.607              1.940              3.244
 Vibration     5          0.609              1.933              3.108
 Vibration     6          0.620              1.898              2.617
 Vibration     7          0.629              1.869              2.347
 Vibration     8          0.632              1.858              2.261
 Vibration     9          0.649              1.806              1.933
 Vibration    10          0.658              1.776              1.788
 Vibration    11          0.678              1.717              1.556
 Vibration    12          0.683              1.700              1.500
 Vibration    13          0.702              1.645              1.337
 Vibration    14          0.724              1.582              1.182
 Vibration    15          0.728              1.573              1.161
 Vibration    16          0.781              1.432              0.900
 Vibration    17          0.791              1.406              0.860
 Vibration    18          0.821              1.330              0.755
 Vibration    19          0.900              1.150              0.554
 Vibration    20          0.912              1.125              0.531
 Vibration    21          0.923              1.102              0.510
 Vibration    22          0.952              1.044              0.460
 Vibration    23          0.964              1.021              0.441

                           ! Non-Optimized Parameters !
 Normal termination of Gaussian 16 at Thu Oct 24 06:43:03 2024.
