 Gaussian 16, Revision C.01,
 Gaussian 16:  EM64L-G16RevC.01  3-Jul-2019

 ------------------------------------------------------
 # PBE1PBE/aug-cc-pVDZ opt freq EmpiricalDispersion=GD3
 ------------------------------------------------------

 ----
 blah
 ----
 Symbolic Z-matrix:
 Charge =  0 Multiplicity = 1

 SCF Done:  E(RPBE1PBE) =  -910.204857658     A.U. after   14 cycles
 SCF Done:  E(RPBE1PBE) =  -910.213208625     A.U. after   12 cycles
 SCF Done:  E(RPBE1PBE) =  -910.214035125     A.U. after   12 cycles
 SCF Done:  E(RPBE1PBE) =  -910.214118667     A.U. after   12 cycles
 SCF Done:  E(RPBE1PBE) =  -910.214836493     A.U. after   12 cycles
 SCF Done:  E(RPBE1PBE) =  -910.214985282     A.U. after   11 cycles
 SCF Done:  E(RPBE1PBE) =  -910.215110305     A.U. after   11 cycles
 SCF Done:  E(RPBE1PBE) =  -910.215201248     A.U. after   11 cycles
 SCF Done:  E(RPBE1PBE) =  -910.215353585     A.U. after   12 cycles
 SCF Done:  E(RPBE1PBE) =  -910.215403525     A.U. after   11 cycles
 SCF Done:  E(RPBE1PBE) =  -910.216962970     A.U. after   11 cycles
 SCF Done:  E(RPBE1PBE) =  -910.217238113     A.U. after   13 cycles
 SCF Done:  E(RPBE1PBE) =  -910.217396767     A.U. after   12 cycles
 SCF Done:  E(RPBE1PBE) =  -910.217586587     A.U. after   11 cycles
 SCF Done:  E(RPBE1PBE) =  -910.217639971     A.U. after   10 cycles
 SCF Done:  E(RPBE1PBE) =  -910.217650709     A.U. after   10 cycles
 SCF Done:  E(RPBE1PBE) =  -910.217655498     A.U. after   10 cycles
 SCF Done:  E(RPBE1PBE) =  -910.217657607     A.U. after   10 cycles
 SCF Done:  E(RPBE1PBE) =  -910.217658029     A.U. after    8 cycles
 Optimization completed.
    -- Stationary point found.
 Normal termination of Gaussian 16 at Thu Oct 17 06:32:00 2024.

 ----------------------------------------------------------------------
 #N Geom=AllCheck Guess=TCheck SCRF=Check GenChk RPBE1PBE/Aug-CC-pVDZ F
 req
 ----------------------------------------------------------------------

 Structure from the checkpoint file:  "/scr/Gau-50624.chk"
 ----
 blah
 ----
 Charge =  0 Multiplicity = 1

                         Standard orientation:
 ---------------------------------------------------------------------
 Center     Atomic      Atomic             Coordinates (Angstroms)
 Number     Number       Type             X           Y           Z
 ---------------------------------------------------------------------
      1          6           0        2.358808   -0.226647   -0.606955
      2          6           0        1.208765   -1.255922   -0.620004
      3          6           0        0.356473   -0.883769    0.603393
      4          8           0        1.677126   -2.574293   -0.391705
      5          1           0        0.626478   -1.203359   -1.548907
      6          8           0        0.971247    0.190094    1.265065
      7          1           0        0.313124   -1.769445    1.255310
      8          7           0       -1.028691   -0.531898    0.324091
      9          6           0        2.316298    0.356832    0.810643
     10          1           0        2.152702    0.563981   -1.334218
     11          8           0        3.606436   -0.776506   -0.954903
     12          6           0        2.659937    1.829616    0.906644
     13          1           0        2.998881   -0.217797    1.465633
     14          8           0        1.953501    2.623534   -0.014263
     15          1           0        3.731448    1.952501    0.692891
     16          1           0        2.479688    2.158857    1.945322
     17          1           0        3.834634   -1.434734   -0.287976
     18          1           0        2.218975   -2.821504   -1.149374
     19          1           0        1.055603    2.274039   -0.106466
     20          6           0       -2.056454   -1.187971    0.958439
     21          6           0       -3.357248   -0.884148    0.769662
     22          6           0       -3.720383    0.195043   -0.129679
     23          7           0       -2.606911    0.820336   -0.713422
     24          6           0       -1.279873    0.528654   -0.535819
     25          1           0       -1.742186   -1.986093    1.629312
     26          1           0       -4.148111   -1.424027    1.280834
     27          1           0       -2.800629    1.590743   -1.342698
     28          8           0       -4.845030    0.575301   -0.394665
     29          8           0       -0.386946    1.145325   -1.098564
 ---------------------------------------------------------------------

 SCF Done:  E(RPBE1PBE) =  -910.217658029     A.U. after    1 cycles

 The electronic state is 1-A.
 Alpha  occ. eigenvalues --  -19.26321 -19.26120 -19.25168 -19.23048 -19.21624
 Alpha  occ. eigenvalues --  -19.21535 -14.49231 -14.47044 -10.40669 -10.36659
 Alpha  occ. eigenvalues --  -10.35736 -10.33015 -10.31209 -10.30166 -10.29745
 Alpha  occ. eigenvalues --  -10.28150 -10.26735  -1.14515  -1.12053  -1.09746
 Alpha  occ. eigenvalues --   -1.09416  -1.07468  -1.05150  -1.03439  -0.98178
 Alpha  occ. eigenvalues --   -0.85180  -0.81448  -0.80648  -0.74256  -0.72119
 Alpha  occ. eigenvalues --   -0.69051  -0.65743  -0.63719  -0.62101  -0.59452
 Alpha  occ. eigenvalues --   -0.57457  -0.56244  -0.54020  -0.53472  -0.52906
 Alpha  occ. eigenvalues --   -0.50838  -0.50196  -0.49638  -0.49082  -0.48113
 Alpha  occ. eigenvalues --   -0.45478  -0.45003  -0.44600  -0.44133  -0.43901
 Alpha  occ. eigenvalues --   -0.42901  -0.41733  -0.40090  -0.37946  -0.35880
 Alpha  occ. eigenvalues --   -0.35575  -0.34051  -0.33904  -0.32131  -0.31208
 Alpha  occ. eigenvalues --   -0.30303  -0.29526  -0.28287  -0.27673
 Alpha virt. eigenvalues --   -0.05903  -0.01867  -0.01617  -0.00881  -0.00191
 Alpha virt. eigenvalues --    0.00586   0.01940   0.02338   0.02872   0.03149
 Alpha virt. eigenvalues --    0.03669   0.04251   0.04872   0.05117   0.05624

 Mulliken charges:
               1
     1  C    0.947742
     2  C    0.922874
     3  C    1.161821
     4  O   -0.659038
     5  H   -0.471588
     6  O   -0.930280
     7  H   -0.394550
     8  N    0.138148
     9  C    0.524200
    10  H   -0.476659
    11  O   -0.555217
    12  C    1.204079
    13  H   -0.556762
    14  O   -0.511055
    15  H   -0.244191
    16  H   -0.225597
    17  H    0.060464
    18  H    0.099279
    19  H    0.180665
    20  C    0.523772
    21  C    1.230301
    22  C    0.397240
    23  N   -0.262970
    24  C    0.602844
    25  H   -0.783776
    26  H   -0.559956
    27  H   -0.081029
    28  O   -0.651310
    29  O   -0.629452
 Sum of Mulliken charges =  -0.00000

 Dipole moment (field-independent basis, Debye):
    X=              1.7151    Y=             -4.4787    Z=              1.8075  Tot=              5.1251
 Quadrupole moment (field-independent basis, Debye-Ang):
   XX=           -116.3615   YY=           -101.2393   ZZ=            -96.3066
   XY=             -2.5799   XZ=              1.2690   YZ=              0.2628

  Exact polarizability:     194.237      -1.063     130.564       0.658     -10.009     112.456
 Approx polarizability:     255.684      -5.648     185.089       0.734     -23.068     171.212

                      1                      2                      3
                      A                      A                      A
 Frequencies --     43.4326                56.4338                63.3032
 Red. masses --      8.4809                 5.8201                 5.4342
 Frc consts  --      0.0094                 0.0109                 0.0128
 IR Inten    --      0.3793                 0.1926                 0.5087

                      4                      5                      6
                      A                      A                      A
 Frequencies --     87.4627               129.9735               152.0303
 Red. masses --      6.4768                 4.6886                 5.8637
 Frc consts  --      0.0292                 0.0467                 0.0799
 IR Inten    --      0.9330                 9.1420                 7.7893

                      7                      8                      9
                      A                      A                      A
 Frequencies --    171.9992               198.6278               211.0272
 Red. masses --      8.0761                 4.5456                 1.3516
 Frc consts  --      0.1408                 0.1057                 0.0355
 IR Inten    --      2.7945                10.3789               176.6335

                     10                     11                     12
                      A                      A                      A
 Frequencies --    230.4258               261.5994               282.7580
 Red. masses --      3.6855                 5.6384                 5.0999
 Frc consts  --      0.1153                 0.2273                 0.2402
 IR Inten    --      1.3939                15.5882                 3.2838

                     13                     14                     15
                      A                      A                      A
 Frequencies --    304.6659               342.6611               351.3202
 Red. masses --      4.8665                 5.4754                 6.1578
 Frc consts  --      0.2661                 0.3788                 0.4478
 IR Inten    --     11.0326                31.1827                 1.4430

                     16                     17                     18
                      A                      A                      A
 Frequencies --    402.4724               415.0984               462.2358
 Red. masses --      9.6988                 3.1813                 1.1049
 Frc consts  --      0.9256                 0.3230                 0.1391
 IR Inten    --     17.3990                12.1319               120.0650

                     19                     20                     21
                      A                      A                      A
 Frequencies --    464.6345               545.8746               548.6330
 Red. masses --      3.5135                 4.2694                 2.9073
 Frc consts  --      0.4469                 0.7495                 0.5156
 IR Inten    --      0.2417                 3.5841                22.8245

                     22                     23                     24
                      A                      A                      A
 Frequencies --    554.3687               580.2107               603.5341
 Red. masses --      1.4409                 6.3446                 6.7777
 Frc consts  --      0.2609                 1.2584                 1.4546
 IR Inten    --      1.9599                30.9026                 3.7519

                     25                     26                     27
                      A                      A                      A
 Frequencies --    647.7548               702.7736               712.8622
 Red. masses --      5.1874                 1.2701                 4.9625
 Frc consts  --      1.2824                 0.3696                 1.4858
 IR Inten    --      4.2965                43.6011                17.8823

                     28                     29                     30
                      A                      A                      A
 Frequencies --    726.4360               753.4322               781.2129
 Red. masses --      1.9366                 4.7046                 7.8232
 Frc consts  --      0.6021                 1.5735                 2.8130
 IR Inten    --      0.1222                 6.8279                 9.9560

                     31                     32                     33
                      A                      A                      A
 Frequencies --    788.2614               827.4222               863.7564
 Red. masses --      7.9351                 2.3982                 3.3182
 Frc consts  --      2.9050                 0.9674                 1.4586
 IR Inten    --     32.3196                55.3148                 3.8195

                     34                     35                     36
                      A                      A                      A
 Frequencies --    888.1696               907.0213               973.1967
 Red. masses --      4.1328                 2.3950                 1.2992
 Frc consts  --      1.9208                 1.1609                 0.7250
 IR Inten    --     31.1779                52.8754                 0.8113

                     37                     38                     39
                      A                      A                      A
 Frequencies --    976.2790               989.0627              1039.9332
 Red. masses --      2.7893                 2.7670                 2.2801
 Frc consts  --      1.5664                 1.5948                 1.4529
 IR Inten    --      6.1239                 1.0634                28.2173

                     40                     41                     42
                      A                      A                      A
 Frequencies --   1074.1878              1091.6845              1105.2527
 Red. masses --      2.8717                 2.1762                 4.4229
 Frc consts  --      1.9523                 1.5281                 3.1833
 IR Inten    --      9.3445                27.5500               191.7875

                     43                     44                     45
                      A                      A                      A
 Frequencies --   1131.4078              1152.5704              1163.4243
 Red. masses --      1.8079                 2.8774                 2.3385
 Frc consts  --      1.3635                 2.2521                 1.8649
 IR Inten    --     62.8932               136.2762                18.2773

                     46                     47                     48
                      A                      A                      A
 Frequencies --   1167.5856              1215.7276              1236.7721
 Red. masses --      3.8896                 1.6717                 1.5611
 Frc consts  --      3.1242                 1.4558                 1.4069
 IR Inten    --    139.3704                24.0896                35.5636

                     49                     50                     51
                      A                      A                      A
 Frequencies --   1241.9917              1254.3406              1261.7901
 Red. masses --      1.7858                 1.5975                 1.5462
 Frc consts  --      1.6230                 1.4809                 1.4504
 IR Inten    --     13.4332                49.1121                37.7135

                     52                     53                     54
                      A                      A                      A
 Frequencies --   1283.7109              1300.6026              1309.6174
 Red. masses --      1.4126                 1.4558                 1.3493
 Frc consts  --      1.3715                 1.4509                 1.3634
 IR Inten    --     17.9418                28.5112                 9.9215

                     55                     56                     57
                      A                      A                      A
 Frequencies --   1327.2599              1343.5135              1353.8580
 Red. masses --      1.4120                 1.3267                 1.5102
 Frc consts  --      1.4655                 1.4110                 1.6309
 IR Inten    --     33.1993                 5.0457                11.5202

                     58                     59                     60
                      A                      A                      A
 Frequencies --   1387.7126              1400.6334              1412.0406
 Red. masses --      1.4657                 1.4479                 2.2711
 Frc consts  --      1.6630                 1.6736                 2.6680
 IR Inten    --      8.3884                31.4745                10.2404

                     61                     62                     63
                      A                      A                      A
 Frequencies --   1426.7029              1437.8081              1442.2638
 Red. masses --      2.6220                 1.4250                 1.4176
 Frc consts  --      3.1445                 1.7356                 1.7374
 IR Inten    --     84.2346                35.0480                20.3434

                     64                     65                     66
                      A                      A                      A
 Frequencies --   1445.8512              1477.3485              1495.7681
 Red. masses --      1.6005                 1.0816                 4.2816
 Frc consts  --      1.9713                 1.3908                 5.6440
 IR Inten    --     15.8434                 3.1819               167.3763

                     67                     68                     69
                      A                      A                      A
 Frequencies --   1699.5197              1786.2062              1805.8384
 Red. masses --      6.8511                 8.5121                10.2434
 Frc consts  --     11.6591                16.0012                19.6813
 IR Inten    --     79.8473               993.4015               569.1200

                     70                     71                     72
                      A                      A                      A
 Frequencies --   2996.6036              3022.9459              3065.4136
 Red. masses --      1.0814                 1.0703                 1.0859
 Frc consts  --      5.7214                 5.7624                 6.0121
 IR Inten    --     41.6477                81.4113                20.0462

                     73                     74                     75
                      A                      A                      A
 Frequencies --   3097.5634              3102.4260              3158.7345
 Red. masses --      1.0879                 1.0966                 1.0874
 Frc consts  --      6.1498                 6.2185                 6.3925
 IR Inten    --     19.2771                24.5270                 2.8580

                     76                     77                     78
                      A                      A                      A
 Frequencies --   3231.2181              3274.8361              3624.5544
 Red. masses --      1.0922                 1.0971                 1.0778
 Frc consts  --      6.7187                 6.9320                 8.3427
 IR Inten    --      1.6249                 2.2505                77.2111

                     79                     80                     81
                      A                      A                      A
 Frequencies --   3765.1239              3830.8855              3849.1808
 Red. masses --      1.0671                 1.0656                 1.0661
 Frc consts  --      8.9125                 9.2141                 9.3060
 IR Inten    --    235.6135                29.5886                54.0888

 - Thermochemistry -
 -------------------
 Temperature   298.150 Kelvin.  Pressure   1.00000 Atm.
 Atom     1 has atomic number  6 and mass  12.00000

 Molecular mass:   244.06954 amu.
 Principal axes and moments of inertia in atomic units:
                           1         2         3
     Eigenvalues --  1963.441795902.576046824.88453
           X            0.99998   0.00658   0.00022
           Y           -0.00658   0.99998   0.00125
           Z           -0.00022  -0.00125   1.00000
 This molecule is an asymmetric top.
 Rotational symmetry number  1.
 Warning -- assumption of classical behavior for rotation
           may cause significant error
 Rotational temperatures (Kelvin)      0.04411     0.01467     0.01269
 Rotational constants (GHZ):           0.91917     0.30575     0.26444
 Zero-point vibrational energy     599896.3 (Joules/Mol)
                                  143.37866 (Kcal/Mol)
 Warning -- explicit consideration of  24 degrees of freedom as
           vibrations may cause significant error
 Vibrational temperatures:     62.49    81.20    91.08   125.84   187.00
          (Kelvin)            218.74   247.47   285.78   303.62   331.53
                              376.38   406.83   438.35   493.01   505.47
                              579.07   597.23   665.05   668.51   785.39
                              789.36   797.61   834.79   868.35   931.97
                             1011.13  1025.65  1045.18  1084.02  1123.99
                             1134.13  1190.48  1242.75  1277.88  1305.00
                             1400.21  1404.65  1423.04  1496.23  1545.52
                             1570.69  1590.21  1627.84  1658.29  1673.91
                             1679.90  1749.16  1779.44  1786.95  1804.72
                             1815.43  1846.97  1871.28  1884.25  1909.63
                             1933.02  1947.90  1996.61  2015.20  2031.61
                             2052.71  2068.69  2075.10  2080.26  2125.58
                             2152.08  2445.23  2569.95  2598.20  4311.44
                             4349.34  4410.45  4456.70  4463.70  4544.71
                             4649.00  4711.76  5214.93  5417.17  5511.79
                             5538.11

 Zero-point correction=                           0.228488 (Hartree/Particle)
 Thermal correction to Energy=                    0.243629
 Thermal correction to Enthalpy=                  0.244573
 Thermal correction to Gibbs Free Energy=         0.185849
 Sum of electronic and zero-point Energies=           -909.989170
 Sum of electronic and thermal Energies=              -909.974029
 Sum of electronic and thermal Enthalpies=            -909.973085
 Sum of electronic and thermal Free Energies=         -910.031809

                     E (Thermal)             CV                S
                      KCal/Mol        Cal/Mol-Kelvin    Cal/Mol-Kelvin
 Total                  152.879             57.973            123.596
 Electronic               0.000              0.000              0.000
 Translational            0.889              2.981             42.378
 Rotational               0.889              2.981             32.736
 Vibrational            151.102             52.011             48.482
 Vibration     1          0.595              1.980              5.096
 Vibration     2          0.596              1.975              4.578
 Vibration     3          0.597              1.972              4.351
 Vibration     4          0.601              1.958              3.716
 Vibration     5          0.612              1.923              2.946
 Vibration     6          0.619              1.900              2.647
 Vibration     7          0.626              1.877              2.414
 Vibration     8          0.637              1.842              2.146
 Vibration     9          0.643              1.824              2.035
 Vibration    10          0.652              1.795              1.876
 Vibration    11          0.669              1.743              1.651
 Vibration    12          0.682              1.706              1.517
 Vibration    13          0.696              1.665              1.391
 Vibration    14          0.722              1.590              1.200
 Vibration    15          0.728              1.573              1.160
 Vibration    16          0.768              1.465              0.954
 Vibration    17          0.779              1.437              0.909
 Vibration    18          0.820              1.334              0.760
 Vibration    19          0.822              1.329              0.753
 Vibration    20          0.901              1.149              0.553
 Vibration    21          0.904              1.143              0.547
 Vibration    22          0.910              1.130              0.535
 Vibration    23          0.937              1.074              0.485
 Vibration    24          0.962              1.024              0.444

                           ! Non-Optimized Parameters !
 Normal termination of Gaussian 16 at Thu Oct 17 06:48:22 2024.
