 Gaussian 16, Revision C.01,
 Gaussian 16:  EM64L-G16RevC.01  3-Jul-2019

 ------------------------------------------------------
 # PBE1PBE/aug-cc-pVDZ opt freq EmpiricalDispersion=GD3
 ------------------------------------------------------

 ----
 blah
 ----
 Symbolic Z-matrix:
 Charge =  0 Multiplicity = 2

 SCF Done:  E(UPBE1PBE) =  -909.505551727     A.U. after   69 cycles
 SCF Done:  E(UPBE1PBE) =  -909.507698880     A.U. after   35 cycles
 SCF Done:  E(UPBE1PBE) =  -909.509799470     A.U. after   31 cycles
 SCF Done:  E(UPBE1PBE) =  -909.512241596     A.U. after   31 cycles
 SCF Done:  E(UPBE1PBE) =  -909.512981077     A.U. after   27 cycles
 SCF Done:  E(UPBE1PBE) =  -909.513236490     A.U. after   29 cycles
 SCF Done:  E(UPBE1PBE) =  -909.513572457     A.U. after   26 cycles
 SCF Done:  E(UPBE1PBE) =  -909.513724968     A.U. after   27 cycles
 SCF Done:  E(UPBE1PBE) =  -909.513786216     A.U. after   25 cycles
 SCF Done:  E(UPBE1PBE) =  -909.513805687     A.U. after   24 cycles
 SCF Done:  E(UPBE1PBE) =  -909.513815542     A.U. after   22 cycles
 SCF Done:  E(UPBE1PBE) =  -909.513823092     A.U. after   22 cycles
 SCF Done:  E(UPBE1PBE) =  -909.513826181     A.U. after   21 cycles
 SCF Done:  E(UPBE1PBE) =  -909.513828452     A.U. after   20 cycles
 SCF Done:  E(UPBE1PBE) =  -909.513830706     A.U. after   21 cycles
 SCF Done:  E(UPBE1PBE) =  -909.513832503     A.U. after   23 cycles
 SCF Done:  E(UPBE1PBE) =  -909.513833590     A.U. after   21 cycles
 SCF Done:  E(UPBE1PBE) =  -909.513834122     A.U. after   22 cycles
 SCF Done:  E(UPBE1PBE) =  -909.513834305     A.U. after   21 cycles
 Optimization completed.
    -- Stationary point found.
 Normal termination of Gaussian 16 at Sat Oct 26 20:41:29 2024.

 ----------------------------------------------------------------------
 #N Geom=AllCheck Guess=TCheck SCRF=Check GenChk UPBE1PBE/Aug-CC-pVDZ F
 req
 ----------------------------------------------------------------------

 Structure from the checkpoint file:  "/scr/Gau-69850.chk"
 ----
 blah
 ----
 Charge =  0 Multiplicity = 2

                         Standard orientation:
 ---------------------------------------------------------------------
 Center     Atomic      Atomic             Coordinates (Angstroms)
 Number     Number       Type             X           Y           Z
 ---------------------------------------------------------------------
      1          6           0        2.314393   -0.239991   -0.605163
      2          6           0        1.153469   -1.259927   -0.610531
      3          6           0        0.316444   -0.881504    0.619880
      4          8           0        1.609118   -2.583593   -0.388029
      5          1           0        0.565290   -1.197244   -1.534938
      6          8           0        0.938091    0.181750    1.281774
      7          1           0        0.264370   -1.769194    1.270059
      8          7           0       -1.067913   -0.509154    0.340719
      9          6           0        2.275056    0.364972    0.803868
     10          1           0        2.121163    0.540230   -1.346435
     11          8           0        3.556862   -0.810984   -0.938950
     12          6           0        2.605273    1.842631    0.879545
     13          1           0        2.970013   -0.192041    1.460867
     14          8           0        1.920197    2.621889   -0.066296
     15          1           0        3.681746    1.965626    0.689896
     16          1           0        2.402428    2.184341    1.910495
     17          1           0        3.778501   -1.456527   -0.257617
     18          1           0        2.157589   -2.827253   -1.142282
     19          1           0        1.025812    2.268017   -0.188154
     20          6           0       -2.074237   -1.148415    0.977812
     21          6           0       -3.373353   -0.791948    0.782454
     22          6           0       -3.574573    0.241798   -0.187839
     23          7           0       -2.615926    0.871741   -0.835328
     24          6           0       -1.315838    0.570124   -0.548623
     25          1           0       -1.782201   -1.934580    1.673331
     26          1           0       -4.198572   -1.262410    1.306832
     27          8           0       -4.806925    0.570136   -0.459961
     28          8           0       -0.362226    1.140362   -1.059563
 ---------------------------------------------------------------------

 SCF Done:  E(UPBE1PBE) =  -909.513834305     A.U. after    1 cycles

 The electronic state is 2-A.
 Alpha  occ. eigenvalues --  -19.33805 -19.26341 -19.26002 -19.25005 -19.21581
 Alpha  occ. eigenvalues --  -19.20932 -14.50070 -14.42475 -10.38864 -10.37795
 Alpha  occ. eigenvalues --  -10.35746 -10.34253 -10.31144 -10.30008 -10.29575
 Alpha  occ. eigenvalues --  -10.28793 -10.27783  -1.15857  -1.13704  -1.10868
 Alpha  occ. eigenvalues --   -1.09481  -1.07303  -1.04638  -1.03412  -0.96943
 Alpha  occ. eigenvalues --   -0.85927  -0.81297  -0.80481  -0.73036  -0.72075
 Alpha  occ. eigenvalues --   -0.68691  -0.65586  -0.63629  -0.61520  -0.59526
 Alpha  occ. eigenvalues --   -0.57419  -0.55932  -0.53951  -0.52770  -0.52274
 Alpha  occ. eigenvalues --   -0.51356  -0.50551  -0.50393  -0.49248  -0.48102
 Alpha  occ. eigenvalues --   -0.46763  -0.46155  -0.44506  -0.43916  -0.42712
 Alpha  occ. eigenvalues --   -0.41784  -0.41348  -0.40163  -0.37885  -0.35756
 Alpha  occ. eigenvalues --   -0.35430  -0.33743  -0.33589  -0.32513  -0.32337
 Alpha  occ. eigenvalues --   -0.30502  -0.29623  -0.28434  -0.27750
 Alpha virt. eigenvalues --   -0.07064  -0.02452  -0.01763  -0.01345   0.00021
 Alpha virt. eigenvalues --    0.00991   0.01592   0.02878   0.03131   0.03535
 Alpha virt. eigenvalues --    0.04047   0.04399   0.05110   0.05649   0.06007

  Beta  occ. eigenvalues --  -19.31445 -19.26317 -19.26002 -19.25002 -19.21555
  Beta  occ. eigenvalues --  -19.20930 -14.49970 -14.42251 -10.38881 -10.37946
  Beta  occ. eigenvalues --  -10.35751 -10.34282 -10.31136 -10.30008 -10.29573
  Beta  occ. eigenvalues --  -10.28617 -10.27783  -1.13834  -1.11544  -1.10059
  Beta  occ. eigenvalues --   -1.09369  -1.07298  -1.04597  -1.03185  -0.95801
  Beta  occ. eigenvalues --   -0.85573  -0.81276  -0.80271  -0.72773  -0.71731
  Beta  occ. eigenvalues --   -0.68114  -0.65423  -0.63493  -0.60797  -0.59263
  Beta  occ. eigenvalues --   -0.57331  -0.54900  -0.53705  -0.52729  -0.51746
  Beta  occ. eigenvalues --   -0.50633  -0.50147  -0.49355  -0.48784  -0.47874
  Beta  occ. eigenvalues --   -0.45939  -0.44677  -0.44369  -0.43899  -0.42597
  Beta  occ. eigenvalues --   -0.41503  -0.39993  -0.37855  -0.35666  -0.35381
  Beta  occ. eigenvalues --   -0.33617  -0.33223  -0.32168  -0.31874  -0.30397
  Beta  occ. eigenvalues --   -0.29554  -0.27893  -0.27725
  Beta virt. eigenvalues --   -0.20446  -0.06409  -0.02249  -0.01759  -0.01335
  Beta virt. eigenvalues --    0.00035   0.01023   0.01616   0.02912   0.03136
  Beta virt. eigenvalues --    0.03549   0.04066   0.04443   0.05125   0.05689

 Mulliken charges and spin densities:
               1          2
     1  C    0.966112   0.001415
     2  C    0.869909   0.004574
     3  C    1.219726  -0.007918
     4  O   -0.663533   0.000097
     5  H   -0.460448  -0.000249
     6  O   -0.934563   0.007204
     7  H   -0.375126   0.001438
     8  N    0.175114   0.049039
     9  C    0.525061   0.000362
    10  H   -0.481560  -0.000043
    11  O   -0.556882   0.000752
    12  C    1.193233   0.000050
    13  H   -0.552722   0.000541
    14  O   -0.508311   0.000677
    15  H   -0.245472  -0.000028
    16  H   -0.223771   0.000036
    17  H    0.059968  -0.000032
    18  H    0.101913   0.000023
    19  H    0.177539  -0.000211
    20  C    0.577147  -0.034543
    21  C    1.010914   0.146231
    22  C    0.535902  -0.200638
    23  N   -0.476911   0.106228
    24  C    0.459184  -0.002985
    25  H   -0.762825   0.003438
    26  H   -0.497144   0.001950
    27  O   -0.497800   0.911752
    28  O   -0.634651   0.010840
 Sum of Mulliken charges =  -0.00000   1.00000

 Dipole moment (field-independent basis, Debye):
    X=             -0.4870    Y=             -6.2152    Z=              3.5975  Tot=              7.1977
 Quadrupole moment (field-independent basis, Debye-Ang):
   XX=            -96.9523   YY=           -103.9634   ZZ=            -98.3366
   XY=              1.3792   XZ=             -3.3297   YZ=              3.5279

  Exact polarizability:     327.770     -27.150     140.327      21.300     -18.829     119.595
 Approx polarizability:     305.482      -3.913     197.374       0.481     -35.170     182.718

                      1                      2                      3
                      A                      A                      A
 Frequencies --     45.2737                57.7127                65.8113
 Red. masses --      8.4179                 6.0841                 5.3497
 Frc consts  --      0.0102                 0.0119                 0.0137
 IR Inten    --      3.2897                 1.7153                 2.7805

                      4                      5                      6
                      A                      A                      A
 Frequencies --     90.4465               122.7084               128.7947
 Red. masses --      7.2418                 5.0015                 9.1915
 Frc consts  --      0.0349                 0.0444                 0.0898
 IR Inten    --      1.1789                27.6384                45.2023

                      7                      8                      9
                      A                      A                      A
 Frequencies --    163.7115               192.2632               208.6850
 Red. masses --      6.0420                 7.7590                 1.2294
 Frc consts  --      0.0954                 0.1690                 0.0315
 IR Inten    --     87.5199                54.3638               140.3182

                     10                     11                     12
                      A                      A                      A
 Frequencies --    230.5482               258.2337               280.1203
 Red. masses --      3.9309                 5.6494                 4.4945
 Frc consts  --      0.1231                 0.2220                 0.2078
 IR Inten    --      8.6982               127.8176                 7.9530

                     13                     14                     15
                      A                      A                      A
 Frequencies --    299.0674               325.2057               348.4589
 Red. masses --      5.4669                 6.0087                 6.0097
 Frc consts  --      0.2881                 0.3744                 0.4299
 IR Inten    --     16.8062               182.9471                27.3298

                     16                     17                     18
                      A                      A                      A
 Frequencies --    373.6968               377.9015               452.8004
 Red. masses --      5.5889                 6.5485                 4.2204
 Frc consts  --      0.4598                 0.5510                 0.5098
 IR Inten    --    485.2209               408.6783               242.7579

                     19                     20                     21
                      A                      A                      A
 Frequencies --    501.3980               514.1288               549.1519
 Red. masses --      1.2181                 3.5001                 1.2895
 Frc consts  --      0.1804                 0.5451                 0.2291
 IR Inten    --    195.7758               491.3171                28.4235

                     22                     23                     24
                      A                      A                      A
 Frequencies --    563.7809               571.1895               581.5757
 Red. masses --      3.2400                 6.0462                 7.8258
 Frc consts  --      0.6068                 1.1622                 1.5595
 IR Inten    --    109.0063               180.4163                63.9358

                     25                     26                     27
                      A                      A                      A
 Frequencies --    622.1676               650.0640               712.9550
 Red. masses --      4.6948                 5.2128                 4.0222
 Frc consts  --      1.0707                 1.2979                 1.2046
 IR Inten    --    546.1485                21.6764                10.5430

                     28                     29                     30
                      A                      A                      A
 Frequencies --    730.2307               752.0910               762.7108
 Red. masses --      5.5040                 4.7644                 1.6978
 Frc consts  --      1.7292                 1.5878                 0.5819
 IR Inten    --    165.6815                 3.3655                38.4612

                     31                     32                     33
                      A                      A                      A
 Frequencies --    790.9224               852.6616               880.4903
 Red. masses --     10.3615                 4.5856                 3.7301
 Frc consts  --      3.8189                 1.9643                 1.7038
 IR Inten    --     44.4262                 1.6014                10.9114

                     34                     35                     36
                      A                      A                      A
 Frequencies --    902.9481               929.1727               974.2455
 Red. masses --      2.3830                 2.5727                 2.5206
 Frc consts  --      1.1447                 1.3087                 1.4096
 IR Inten    --     26.9159               889.2138                29.8172

                     37                     38                     39
                      A                      A                      A
 Frequencies --    987.3061              1015.7463              1042.9693
 Red. masses --      2.6627                 3.5466                 2.3611
 Frc consts  --      1.5292                 2.1559                 1.5133
 IR Inten    --    235.0022               611.1841                27.6393

                     40                     41                     42
                      A                      A                      A
 Frequencies --   1071.9192              1088.0809              1105.9306
 Red. masses --      2.8530                 2.1533                 3.5048
 Frc consts  --      1.9314                 1.5020                 2.5256
 IR Inten    --      9.6972                24.2822               140.0401

                     43                     44                     45
                      A                      A                      A
 Frequencies --   1130.5304              1152.2511              1164.5194
 Red. masses --      1.9719                 3.2437                 2.5704
 Frc consts  --      1.4849                 2.5374                 2.0537
 IR Inten    --     52.9703               167.5119                17.5810

                     46                     47                     48
                      A                      A                      A
 Frequencies --   1171.4091              1194.8792              1215.5438
 Red. masses --      3.7918                 2.6077                 1.9268
 Frc consts  --      3.0656                 2.1936                 1.6774
 IR Inten    --     93.8234                 2.8734                27.2555

                     49                     50                     51
                      A                      A                      A
 Frequencies --   1239.2530              1254.8221              1263.0222
 Red. masses --      1.4409                 1.7159                 1.4295
 Frc consts  --      1.3038                 1.5919                 1.3436
 IR Inten    --     46.6997                15.0722                13.2407

                     52                     53                     54
                      A                      A                      A
 Frequencies --   1283.1939              1301.3936              1313.8080
 Red. masses --      1.3678                 1.3549                 1.4627
 Frc consts  --      1.3270                 1.3520                 1.4875
 IR Inten    --     17.7289                26.2270                12.8553

                     55                     56                     57
                      A                      A                      A
 Frequencies --   1327.4300              1345.7301              1353.5453
 Red. masses --      1.4236                 1.3528                 1.5226
 Frc consts  --      1.4780                 1.4434                 1.6435
 IR Inten    --     38.4468                 6.2032                13.9875

                     58                     59                     60
                      A                      A                      A
 Frequencies --   1389.0611              1393.0521              1401.7307
 Red. masses --      2.9208                 1.4721                 1.4049
 Frc consts  --      3.3205                 1.6831                 1.6264
 IR Inten    --    141.6898                57.9673                 9.9142

                     61                     62                     63
                      A                      A                      A
 Frequencies --   1439.6709              1442.9929              1445.2642
 Red. masses --      1.3471                 1.4406                 1.5171
 Frc consts  --      1.6451                 1.7674                 1.8671
 IR Inten    --     11.7540                 6.5651                80.7964

                     64                     65                     66
                      A                      A                      A
 Frequencies --   1476.5458              1528.7555              1645.7866
 Red. masses --      1.0804                 5.7308                 6.3245
 Frc consts  --      1.3878                 7.8911                10.0931
 IR Inten    --      2.9080                85.7345                72.9903

                     67                     68                     69
                      A                      A                      A
 Frequencies --   1753.1395              2996.3028              3017.9780
 Red. masses --     11.8145                 1.0805                 1.0714
 Frc consts  --     21.3944                 5.7154                 5.7496
 IR Inten    --    937.4743                43.3581                92.4227

                     70                     71                     72
                      A                      A                      A
 Frequencies --   3053.0670              3096.2329              3100.0131
 Red. masses --      1.0856                 1.0960                 1.0879
 Frc consts  --      5.9621                 6.1903                 6.1597
 IR Inten    --     25.6829                30.5480                16.3919

                     73                     74                     75
                      A                      A                      A
 Frequencies --   3163.4082              3224.8584              3277.0151
 Red. masses --      1.0876                 1.0919                 1.0968
 Frc consts  --      6.4125                 6.6904                 6.9394
 IR Inten    --      2.0571                 6.7789                 1.1726

                     76                     77                     78
                      A                      A                      A
 Frequencies --   3730.7006              3830.9726              3846.9686
 Red. masses --      1.0676                 1.0656                 1.0660
 Frc consts  --      8.7544                 9.2147                 9.2949
 IR Inten    --    334.0037                38.1597                61.5283

 - Thermochemistry -
 -------------------
 Temperature   298.150 Kelvin.  Pressure   1.00000 Atm.
 Atom     1 has atomic number  6 and mass  12.00000

 Molecular mass:   243.06171 amu.
 Principal axes and moments of inertia in atomic units:
                           1         2         3
     Eigenvalues --  1959.130945743.758606653.18252
           X            0.99994   0.01049  -0.00281
           Y           -0.01047   0.99990   0.00903
           Z            0.00290  -0.00900   0.99996
 This molecule is an asymmetric top.
 Rotational symmetry number  1.
 Warning -- assumption of classical behavior for rotation
           may cause significant error
 Rotational temperatures (Kelvin)      0.04421     0.01508     0.01302
 Rotational constants (GHZ):           0.92119     0.31421     0.27126
 Zero-point vibrational energy     557101.7 (Joules/Mol)
                                  133.15049 (Kcal/Mol)
 Warning -- explicit consideration of  24 degrees of freedom as
           vibrations may cause significant error
 Vibrational temperatures:     65.14    83.04    94.69   130.13   176.55
          (Kelvin)            185.31   235.54   276.62   300.25   331.71
                              371.54   403.03   430.29   467.90   501.35
                              537.67   543.72   651.48   721.40   739.72
                              790.11   811.15   821.81   836.76   895.16
                              935.30  1025.78  1050.64  1082.09  1097.37
                             1137.96  1226.79  1266.83  1299.14  1336.87
                             1401.72  1420.51  1461.43  1500.60  1542.25
                             1565.51  1591.19  1626.58  1657.83  1675.48
                             1685.40  1719.16  1748.90  1783.01  1805.41
                             1817.21  1846.23  1872.42  1890.28  1909.88
                             1936.21  1947.45  1998.55  2004.29  2016.78
                             2071.37  2076.14  2079.41  2124.42  2199.54
                             2367.92  2522.38  4311.01  4342.20  4392.68
                             4454.79  4460.23  4551.44  4639.85  4714.89
                             5367.65  5511.92  5534.93

 Zero-point correction=                           0.212189 (Hartree/Particle)
 Thermal correction to Energy=                    0.227521
 Thermal correction to Enthalpy=                  0.228465
 Thermal correction to Gibbs Free Energy=         0.168724
 Sum of electronic and zero-point Energies=           -909.301645
 Sum of electronic and thermal Energies=              -909.286313
 Sum of electronic and thermal Enthalpies=            -909.285369
 Sum of electronic and thermal Free Energies=         -909.345110

                     E (Thermal)             CV                S
                      KCal/Mol        Cal/Mol-Kelvin    Cal/Mol-Kelvin
 Total                  142.772             58.213            125.735
 Electronic               0.000              0.000              1.377
 Translational            0.889              2.981             42.365
 Rotational               0.889              2.981             32.682
 Vibrational            140.994             52.251             49.311
 Vibration     1          0.595              1.979              5.014
 Vibration     2          0.596              1.974              4.534
 Vibration     3          0.597              1.971              4.275
 Vibration     4          0.602              1.956              3.650
 Vibration     5          0.610              1.930              3.057
 Vibration     6          0.611              1.924              2.964
 Vibration     7          0.623              1.887              2.506
 Vibration     8          0.634              1.851              2.206
 Vibration     9          0.642              1.827              2.055
 Vibration    10          0.652              1.794              1.875
 Vibration    11          0.667              1.749              1.674
 Vibration    12          0.680              1.710              1.533
 Vibration    13          0.692              1.675              1.422
 Vibration    14          0.709              1.625              1.284
 Vibration    15          0.726              1.578              1.173
 Vibration    16          0.745              1.526              1.065
 Vibration    17          0.748              1.517              1.048
 Vibration    18          0.811              1.355              0.787
 Vibration    19          0.857              1.247              0.655
 Vibration    20          0.869              1.219              0.624
 Vibration    21          0.904              1.142              0.546
 Vibration    22          0.920              1.110              0.516
 Vibration    23          0.927              1.094              0.502
 Vibration    24          0.938              1.071              0.482

 Optimization completed.
    -- Stationary point found.
 Normal termination of Gaussian 16 at Sat Oct 26 21:07:52 2024.
