 Gaussian 16, Revision C.01,
 Gaussian 16:  EM64L-G16RevC.01  3-Jul-2019

 ------------------------------------------------------
 # PBE1PBE/aug-cc-pVDZ opt freq EmpiricalDispersion=GD3
 ------------------------------------------------------

 ----
 blah
 ----
 Symbolic Z-matrix:
 Charge =  0 Multiplicity = 1

 SCF Done:  E(RPBE1PBE) =  -910.205721942     A.U. after   14 cycles
 SCF Done:  E(RPBE1PBE) =  -910.223653074     A.U. after   13 cycles
 SCF Done:  E(RPBE1PBE) =  -910.224368940     A.U. after   12 cycles
 SCF Done:  E(RPBE1PBE) =  -910.224700748     A.U. after   12 cycles
 SCF Done:  E(RPBE1PBE) =  -910.224864768     A.U. after   11 cycles
 SCF Done:  E(RPBE1PBE) =  -910.224912141     A.U. after   11 cycles
 SCF Done:  E(RPBE1PBE) =  -910.224928711     A.U. after   11 cycles
 SCF Done:  E(RPBE1PBE) =  -910.224940260     A.U. after   10 cycles
 SCF Done:  E(RPBE1PBE) =  -910.224947177     A.U. after   10 cycles
 SCF Done:  E(RPBE1PBE) =  -910.224949538     A.U. after    9 cycles
 SCF Done:  E(RPBE1PBE) =  -910.224951136     A.U. after    9 cycles
 SCF Done:  E(RPBE1PBE) =  -910.224951678     A.U. after    9 cycles
 SCF Done:  E(RPBE1PBE) =  -910.224951790     A.U. after    8 cycles
 Optimization completed.
    -- Stationary point found.
 Normal termination of Gaussian 16 at Sat Oct 26 09:07:37 2024.

 ----------------------------------------------------------------------
 #N Geom=AllCheck Guess=TCheck SCRF=Check GenChk RPBE1PBE/Aug-CC-pVDZ F
 req
 ----------------------------------------------------------------------

 Structure from the checkpoint file:  "/scr/Gau-97758.chk"
 ----
 blah
 ----
 Charge =  0 Multiplicity = 1

                         Standard orientation:
 ---------------------------------------------------------------------
 Center     Atomic      Atomic             Coordinates (Angstroms)
 Number     Number       Type             X           Y           Z
 ---------------------------------------------------------------------
      1          6           0       -2.064190   -0.194097    0.803938
      2          6           0       -1.280861   -1.407899    0.295588
      3          6           0       -0.494161   -0.790195   -0.861746
      4          8           0       -2.169546   -2.373760   -0.218286
      5          1           0       -0.612200   -1.847577    1.051721
      6          8           0       -1.287493    0.297688   -1.347229
      7          1           0       -0.386401   -1.544441   -1.653654
      8          6           0        0.864129   -0.290345   -0.451648
      9          6           0       -2.411767    0.506773   -0.504716
     10          1           0       -1.420436    0.452967    1.416238
     11          8           0       -3.254353   -0.540947    1.491204
     12          6           0       -2.715200    1.980643   -0.390450
     13          1           0       -3.302502    0.012655   -0.931364
     14          8           0       -1.637080    2.642937    0.260516
     15          1           0       -3.651200    2.086825    0.182761
     16          1           0       -2.872013    2.388337   -1.401973
     17          1           0       -3.049259   -0.667924    2.421662
     18          1           0       -2.950102   -2.364092    0.351247
     19          1           0       -1.868299    3.569043    0.365621
     20          6           0        1.156921    1.025348   -0.347482
     21          7           0        2.402785    1.463820    0.016191
     22          6           0        3.462607    0.625004    0.302573
     23          7           0        3.139189   -0.709759    0.189220
     24          6           0        1.906117   -1.266996   -0.167010
     25          1           0        0.405397    1.789268   -0.540217
     26          1           0        2.606224    2.449879    0.085281
     27          1           0        3.887277   -1.362341    0.389896
     28          8           0        4.563687    1.031857    0.622832
     29          8           0        1.769550   -2.479080   -0.215210
 ---------------------------------------------------------------------

 SCF Done:  E(RPBE1PBE) =  -910.224951790     A.U. after    1 cycles

 The electronic state is 1-A.
 Alpha  occ. eigenvalues --  -19.26107 -19.25271 -19.24162 -19.22815 -19.20895
 Alpha  occ. eigenvalues --  -19.20600 -14.47063 -14.45644 -10.38771 -10.35519
 Alpha  occ. eigenvalues --  -10.30778 -10.30029 -10.29798 -10.29722 -10.29541
 Alpha  occ. eigenvalues --  -10.29031 -10.25644  -1.11708  -1.10779  -1.08651
 Alpha  occ. eigenvalues --   -1.08346  -1.07662  -1.05607  -1.01480  -0.96266
 Alpha  occ. eigenvalues --   -0.85108  -0.81413  -0.78815  -0.72685  -0.70215
 Alpha  occ. eigenvalues --   -0.69111  -0.64634  -0.61994  -0.60242  -0.58404
 Alpha  occ. eigenvalues --   -0.57412  -0.55505  -0.53767  -0.53309  -0.52279
 Alpha  occ. eigenvalues --   -0.50592  -0.49602  -0.48807  -0.48325  -0.46470
 Alpha  occ. eigenvalues --   -0.45441  -0.44341  -0.43603  -0.42933  -0.42580
 Alpha  occ. eigenvalues --   -0.41754  -0.39748  -0.38314  -0.38103  -0.36965
 Alpha  occ. eigenvalues --   -0.35304  -0.31794  -0.31618  -0.31340  -0.30683
 Alpha  occ. eigenvalues --   -0.29828  -0.28926  -0.27996  -0.25672
 Alpha virt. eigenvalues --   -0.04310  -0.02303  -0.01346  -0.00322   0.00531
 Alpha virt. eigenvalues --    0.00998   0.01510   0.02426   0.02694   0.03167
 Alpha virt. eigenvalues --    0.03437   0.04389   0.05292   0.05470   0.06058

 Mulliken charges:
               1
     1  C    0.630819
     2  C    1.189863
     3  C    0.770897
     4  O   -0.710521
     5  H   -0.471828
     6  O   -0.837719
     7  H   -0.372188
     8  C    0.519613
     9  C    0.823828
    10  H   -0.447633
    11  O   -0.632028
    12  C    1.122150
    13  H   -0.525666
    14  O   -0.654195
    15  H   -0.229195
    16  H   -0.190722
    17  H    0.141538
    18  H    0.153093
    19  H    0.162098
    20  C    1.411223
    21  N   -0.528792
    22  C    0.726253
    23  N   -0.351741
    24  C    0.527229
    25  H   -0.713227
    26  H   -0.081204
    27  H   -0.073573
    28  O   -0.595137
    29  O   -0.763236
 Sum of Mulliken charges =  -0.00000

 Dipole moment (field-independent basis, Debye):
    X=             -3.8544    Y=              4.8703    Z=              2.1275  Tot=              6.5653
 Quadrupole moment (field-independent basis, Debye-Ang):
   XX=           -109.3239   YY=            -96.2417   ZZ=            -95.1661
   XY=             -7.0998   XZ=             -7.6833   YZ=             -5.3960

  Exact polarizability:     172.373       8.003     154.462       7.512       1.700     103.743
 Approx polarizability:     215.732      18.171     238.305      14.015       6.249     157.649

                      1                      2                      3
                      A                      A                      A
 Frequencies --     39.8497                52.9101                78.7678
 Red. masses --      6.2172                 7.5191                 5.9242
 Frc consts  --      0.0058                 0.0124                 0.0217
 IR Inten    --      1.2047                 0.7547                 2.5443

                      4                      5                      6
                      A                      A                      A
 Frequencies --    102.4427               118.6058               144.4825
 Red. masses --      6.5475                 5.4656                 6.9364
 Frc consts  --      0.0405                 0.0453                 0.0853
 IR Inten    --      4.3719                 3.1785                 3.8311

                      7                      8                      9
                      A                      A                      A
 Frequencies --    157.9522               186.1824               221.3279
 Red. masses --      8.9464                 7.0560                 2.2333
 Frc consts  --      0.1315                 0.1441                 0.0645
 IR Inten    --      2.0059                 4.6492                26.6492

                     10                     11                     12
                      A                      A                      A
 Frequencies --    247.8581               257.7843               268.9557
 Red. masses --      1.6430                 4.8819                 1.5177
 Frc consts  --      0.0595                 0.1911                 0.0647
 IR Inten    --      1.8968                15.0269                53.5465

                     13                     14                     15
                      A                      A                      A
 Frequencies --    286.8871               293.3017               317.0663
 Red. masses --      2.6763                 3.0913                 5.9329
 Frc consts  --      0.1298                 0.1567                 0.3514
 IR Inten    --     24.0792                16.5262                18.5481

                     16                     17                     18
                      A                      A                      A
 Frequencies --    348.9177               397.4066               412.2026
 Red. masses --      4.9519                 7.8845                 3.3278
 Frc consts  --      0.3552                 0.7337                 0.3331
 IR Inten    --      0.1380                27.5838                20.3110

                     19                     20                     21
                      A                      A                      A
 Frequencies --    441.9006               461.8864               546.0039
 Red. masses --      3.3501                 1.1709                 8.4095
 Frc consts  --      0.3854                 0.1472                 1.4771
 IR Inten    --      2.0739               134.5115                10.3959

                     22                     23                     24
                      A                      A                      A
 Frequencies --    562.0732               583.5825               601.0534
 Red. masses --      6.2723                 5.0538                 1.1738
 Frc consts  --      1.1675                 1.0141                 0.2498
 IR Inten    --     18.4960                20.3168                50.9614

                     25                     26                     27
                      A                      A                      A
 Frequencies --    619.4140               635.9165               699.8038
 Red. masses --      5.4599                 4.5311                 1.1946
 Frc consts  --      1.2342                 1.0796                 0.3447
 IR Inten    --     21.4391                17.0424                68.6560

                     28                     29                     30
                      A                      A                      A
 Frequencies --    711.7948               767.0031               772.3658
 Red. masses --      4.1324                 7.0660                 7.6984
 Frc consts  --      1.2336                 2.4492                 2.7058
 IR Inten    --      7.9519                14.5502                24.7842

                     31                     32                     33
                      A                      A                      A
 Frequencies --    792.0021               802.9334               863.1489
 Red. masses --      7.8958                 7.6945                 4.5026
 Frc consts  --      2.9181                 2.9227                 1.9764
 IR Inten    --      9.2392                21.9108                15.4875

                     34                     35                     36
                      A                      A                      A
 Frequencies --    884.1071               902.0887               961.7755
 Red. masses --      3.3446                 2.3560                 1.7122
 Frc consts  --      1.5403                 1.1296                 0.9332
 IR Inten    --      3.0902                10.4138                37.2914

                     37                     38                     39
                      A                      A                      A
 Frequencies --    976.1923               997.3392              1010.3267
 Red. masses --      2.1384                 2.7947                 1.9603
 Frc consts  --      1.2006                 1.6379                 1.1789
 IR Inten    --     15.5589                10.7752                34.5766

                     40                     41                     42
                      A                      A                      A
 Frequencies --   1051.4289              1075.3768              1115.8809
 Red. masses --      2.4949                 3.2367                 2.6810
 Frc consts  --      1.6250                 2.2053                 1.9669
 IR Inten    --     14.2088                63.5062                15.5353

                     43                     44                     45
                      A                      A                      A
 Frequencies --   1130.7903              1149.3176              1161.3274
 Red. masses --      2.7281                 3.4418                 2.1329
 Frc consts  --      2.0553                 2.6786                 1.6949
 IR Inten    --     15.8832               149.7480                 7.9915

                     46                     47                     48
                      A                      A                      A
 Frequencies --   1173.9411              1194.8855              1208.3857
 Red. masses --      2.9880                 1.3587                 1.3963
 Frc consts  --      2.4262                 1.1429                 1.2013
 IR Inten    --    125.1791                53.1855                41.2679

                     49                     50                     51
                      A                      A                      A
 Frequencies --   1228.9887              1253.8074              1259.5426
 Red. masses --      1.6129                 1.5001                 1.6753
 Frc consts  --      1.4353                 1.3895                 1.5659
 IR Inten    --     85.8637                12.8438                32.1433

                     52                     53                     54
                      A                      A                      A
 Frequencies --   1281.1667              1289.5259              1316.2364
 Red. masses --      1.1528                 1.2603                 1.5203
 Frc consts  --      1.1148                 1.2347                 1.5518
 IR Inten    --     26.6182                 5.7811                16.4791

                     55                     56                     57
                      A                      A                      A
 Frequencies --   1325.3998              1348.6543              1363.3515
 Red. masses --      1.4791                 1.4317                 1.3813
 Frc consts  --      1.5309                 1.5343                 1.5127
 IR Inten    --      3.4964                 6.6458                52.2781

                     58                     59                     60
                      A                      A                      A
 Frequencies --   1378.2707              1388.9560              1402.4393
 Red. masses --      1.4647                 1.9736                 1.7343
 Frc consts  --      1.6394                 2.2433                 2.0097
 IR Inten    --     12.1090                10.6192                 2.3449

                     61                     62                     63
                      A                      A                      A
 Frequencies --   1410.2561              1442.0051              1447.1475
 Red. masses --      1.6441                 1.6031                 2.9666
 Frc consts  --      1.9265                 1.9640                 3.6604
 IR Inten    --     10.2409                 7.1949                63.6438

                     64                     65                     66
                      A                      A                      A
 Frequencies --   1456.8493              1480.2514              1524.8605
 Red. masses --      1.9917                 1.0834                 4.2011
 Frc consts  --      2.4906                 1.3986                 5.7553
 IR Inten    --      2.9090                 6.3286               172.2587

                     67                     68                     69
                      A                      A                      A
 Frequencies --   1722.4141              1778.0671              1825.4998
 Red. masses --      6.7741                 9.3596                 8.1710
 Frc consts  --     11.8407                17.4343                16.0430
 IR Inten    --     38.2245               607.4774               866.0596

                     70                     71                     72
                      A                      A                      A
 Frequencies --   3023.2447              3038.5741              3062.5518
 Red. masses --      1.0674                 1.0731                 1.0863
 Frc consts  --      5.7483                 5.8377                 6.0028
 IR Inten    --      5.1672                79.4958                20.2695

                     73                     74                     75
                      A                      A                      A
 Frequencies --   3082.0248              3089.5835              3091.1920
 Red. masses --      1.1076                 1.0860                 1.0868
 Frc consts  --      6.1990                 6.1075                 6.1187
 IR Inten    --     25.1134                 8.5563                27.4945

                     76                     77                     78
                      A                      A                      A
 Frequencies --   3233.3383              3632.5384              3673.4642
 Red. masses --      1.0956                 1.0778                 1.0789
 Frc consts  --      6.7484                 8.3793                 8.5780
 IR Inten    --     23.2438                73.5177                99.0452

                     79                     80                     81
                      A                      A                      A
 Frequencies --   3798.5312              3883.9334              3895.1134
 Red. masses --      1.0655                 1.0668                 1.0668
 Frc consts  --      9.0578                 9.4819                 9.5365
 IR Inten    --     61.3901                54.2257                49.7224

 - Thermochemistry -
 -------------------
 Temperature   298.150 Kelvin.  Pressure   1.00000 Atm.
 Atom     1 has atomic number  6 and mass  12.00000

 Molecular mass:   244.06954 amu.
 Principal axes and moments of inertia in atomic units:
                           1         2         3
     Eigenvalues --  2296.486575558.032497017.65010
           X            0.99994  -0.01039  -0.00238
           Y            0.01037   0.99990  -0.00994
           Z            0.00248   0.00991   0.99995
 This molecule is an asymmetric top.
 Rotational symmetry number  1.
 Warning -- assumption of classical behavior for rotation
           may cause significant error
 Rotational temperatures (Kelvin)      0.03772     0.01558     0.01234
 Rotational constants (GHZ):           0.78587     0.32471     0.25717
 Zero-point vibrational energy     599417.2 (Joules/Mol)
                                  143.26414 (Kcal/Mol)
 Warning -- explicit consideration of  25 degrees of freedom as
           vibrations may cause significant error
 Vibrational temperatures:     57.33    76.13   113.33   147.39   170.65
          (Kelvin)            207.88   227.26   267.87   318.44   356.61
                              370.89   386.97   412.77   422.00   456.19
                              502.01   571.78   593.07   635.80   664.55
                              785.58   808.70   839.65   864.78   891.20
                              914.94  1006.86  1024.11  1103.55  1111.26
                             1139.51  1155.24  1241.88  1272.03  1297.90
                             1383.78  1404.52  1434.95  1453.63  1512.77
                             1547.23  1605.50  1626.96  1653.61  1670.89
                             1689.04  1719.17  1738.60  1768.24  1803.95
                             1812.20  1843.31  1855.34  1893.77  1906.95
                             1940.41  1961.56  1983.02  1998.40  2017.80
                             2029.04  2074.72  2082.12  2096.08  2129.75
                             2193.93  2478.17  2558.24  2626.49  4349.77
                             4371.83  4406.33  4434.35  4445.22  4447.54
                             4652.05  5226.41  5285.30  5465.24  5588.11
                             5604.20

 Zero-point correction=                           0.228306 (Hartree/Particle)
 Thermal correction to Energy=                    0.243848
 Thermal correction to Enthalpy=                  0.244792
 Thermal correction to Gibbs Free Energy=         0.185323
 Sum of electronic and zero-point Energies=           -909.996646
 Sum of electronic and thermal Energies=              -909.981104
 Sum of electronic and thermal Enthalpies=            -909.980160
 Sum of electronic and thermal Free Energies=         -910.039628

                     E (Thermal)             CV                S
                      KCal/Mol        Cal/Mol-Kelvin    Cal/Mol-Kelvin
 Total                  153.017             59.058            125.163
 Electronic               0.000              0.000              0.000
 Translational            0.889              2.981             42.378
 Rotational               0.889              2.981             32.860
 Vibrational            151.240             53.096             49.925
 Vibration     1          0.594              1.981              5.267
 Vibration     2          0.596              1.976              4.706
 Vibration     3          0.600              1.963              3.921
 Vibration     4          0.605              1.947              3.407
 Vibration     5          0.609              1.934              3.123
 Vibration     6          0.616              1.909              2.744
 Vibration     7          0.621              1.894              2.574
 Vibration     8          0.632              1.859              2.266
 Vibration     9          0.648              1.809              1.948
 Vibration    10          0.661              1.766              1.746
 Vibration    11          0.667              1.750              1.677
 Vibration    12          0.673              1.730              1.603
 Vibration    13          0.684              1.698              1.492
 Vibration    14          0.688              1.686              1.455
 Vibration    15          0.704              1.641              1.325
 Vibration    16          0.726              1.577              1.171
 Vibration    17          0.764              1.476              0.972
 Vibration    18          0.776              1.444              0.919
 Vibration    19          0.802              1.379              0.821
 Vibration    20          0.820              1.335              0.761
 Vibration    21          0.901              1.148              0.553
 Vibration    22          0.918              1.113              0.520
 Vibration    23          0.940              1.067              0.479
 Vibration    24          0.959              1.030              0.448
 Vibration    25          0.979              0.991              0.417

 Optimization completed.
    -- Stationary point found.
 Normal termination of Gaussian 16 at Sat Oct 26 09:23:39 2024.
