 Gaussian 16, Revision C.01,
 Gaussian 16:  EM64L-G16RevC.01  3-Jul-2019

 ------------------------------------------------------
 # PBE1PBE/aug-cc-pVDZ opt freq EmpiricalDispersion=GD3
 ------------------------------------------------------

 ----
 blah
 ----
 Symbolic Z-matrix:
 Charge =  0 Multiplicity = 2

 SCF Done:  E(UPBE1PBE) =  -909.554289148     A.U. after   23 cycles
 SCF Done:  E(UPBE1PBE) =  -909.554697477     A.U. after   20 cycles
 SCF Done:  E(UPBE1PBE) =  -909.560289611     A.U. after   20 cycles
 SCF Done:  E(UPBE1PBE) =  -909.561318991     A.U. after   18 cycles
 SCF Done:  E(UPBE1PBE) =  -909.562330665     A.U. after   18 cycles
 SCF Done:  E(UPBE1PBE) =  -909.562739236     A.U. after   17 cycles
 SCF Done:  E(UPBE1PBE) =  -909.562969817     A.U. after   15 cycles
 SCF Done:  E(UPBE1PBE) =  -909.563110149     A.U. after   15 cycles
 SCF Done:  E(UPBE1PBE) =  -909.563126434     A.U. after   14 cycles
 SCF Done:  E(UPBE1PBE) =  -909.563137673     A.U. after   13 cycles
 SCF Done:  E(UPBE1PBE) =  -909.563141309     A.U. after   11 cycles
 SCF Done:  E(UPBE1PBE) =  -909.563142456     A.U. after   13 cycles
 SCF Done:  E(UPBE1PBE) =  -909.563142717     A.U. after   11 cycles
 SCF Done:  E(UPBE1PBE) =  -909.563142812     A.U. after   10 cycles
 SCF Done:  E(UPBE1PBE) =  -909.563142858     A.U. after   11 cycles
 Optimization completed.
    -- Stationary point found.
 Normal termination of Gaussian 16 at Mon Oct 28 00:14:40 2024.

 ----------------------------------------------------------------------
 #N Geom=AllCheck Guess=TCheck SCRF=Check GenChk UPBE1PBE/Aug-CC-pVDZ F
 req
 ----------------------------------------------------------------------

 Structure from the checkpoint file:  "/scr/Gau-23963.chk"
 ----
 blah
 ----
 Charge =  0 Multiplicity = 2

                         Standard orientation:
 ---------------------------------------------------------------------
 Center     Atomic      Atomic             Coordinates (Angstroms)
 Number     Number       Type             X           Y           Z
 ---------------------------------------------------------------------
      1          6           0       -2.703187   -0.559234    0.297193
      2          6           0       -1.274909   -0.832720    0.796297
      3          6           0       -0.485537   -0.698866   -0.540828
      4          8           0       -1.117927   -2.065983    1.419224
      5          1           0       -0.964642   -0.037941    1.483853
      6          8           0       -1.135629    0.321581   -1.262947
      7          1           0       -0.573606   -1.670711   -1.064640
      8          6           0        0.952597   -0.402295   -0.349543
      9          6           0       -2.503559    0.454973   -0.825270
     10          1           0       -3.331621   -0.168016    1.104660
     11          8           0       -3.294338   -1.783536   -0.126031
     12          6           0       -2.741980    1.895407   -0.405101
     13          1           0       -3.163251    0.216980   -1.677637
     14          8           0       -2.066971    2.227294    0.778925
     15          1           0       -3.817377    2.036444   -0.222843
     16          1           0       -2.452295    2.550313   -1.244868
     17          1           0       -3.125372   -1.915708   -1.064223
     18          1           0       -1.793912   -2.647522    1.039923
     19          1           0       -1.110551    2.170780    0.610044
     20          6           0        1.927677   -1.400939   -0.566716
     21          7           0        3.223923   -1.261259   -0.425300
     22          6           0        3.707302   -0.017397   -0.014738
     23          7           0        2.781117    0.993313    0.243169
     24          6           0        1.414091    0.899087    0.149449
     25          1           0        1.584777   -2.386837   -0.896411
     26          1           0        3.158674    1.871792    0.581144
     27          8           0        4.894275    0.196869    0.125261
     28          8           0        0.695457    1.832269    0.488251
 ---------------------------------------------------------------------

 SCF Done:  E(UPBE1PBE) =  -909.563142858     A.U. after    1 cycles

 The electronic state is 2-A.
 Alpha  occ. eigenvalues --  -19.27171 -19.26734 -19.25345 -19.24877 -19.23883
 Alpha  occ. eigenvalues --  -19.22196 -14.47720 -14.45081 -10.39419 -10.39025
 Alpha  occ. eigenvalues --  -10.32985 -10.32881 -10.32203 -10.31668 -10.31614
 Alpha  occ. eigenvalues --  -10.31235 -10.29036  -1.13952  -1.12854  -1.11725
 Alpha  occ. eigenvalues --   -1.10051  -1.08202  -1.05733  -1.02396  -0.97404
 Alpha  occ. eigenvalues --   -0.87962  -0.82634  -0.79683  -0.72690  -0.72220
 Alpha  occ. eigenvalues --   -0.69197  -0.66516  -0.64602  -0.60592  -0.60256
 Alpha  occ. eigenvalues --   -0.57335  -0.56675  -0.55015  -0.53703  -0.52707
 Alpha  occ. eigenvalues --   -0.51399  -0.50466  -0.49124  -0.48298  -0.48038
 Alpha  occ. eigenvalues --   -0.47179  -0.46530  -0.45631  -0.44865  -0.42769
 Alpha  occ. eigenvalues --   -0.42590  -0.40453  -0.38434  -0.37445  -0.35843
 Alpha  occ. eigenvalues --   -0.35132  -0.34437  -0.33825  -0.33039  -0.32642
 Alpha  occ. eigenvalues --   -0.32009  -0.31099  -0.28798  -0.28112
 Alpha virt. eigenvalues --   -0.06410  -0.02595  -0.02407  -0.00169  -0.00030
 Alpha virt. eigenvalues --    0.00510   0.01411   0.02419   0.02834   0.03066
 Alpha virt. eigenvalues --    0.03723   0.04480   0.04809   0.05623   0.06064

  Beta  occ. eigenvalues --  -19.27161 -19.26664 -19.25323 -19.24583 -19.23393
  Beta  occ. eigenvalues --  -19.22196 -14.47741 -14.44330 -10.39554 -10.39119
  Beta  occ. eigenvalues --  -10.33162 -10.33028 -10.31646 -10.31499 -10.31316
  Beta  occ. eigenvalues --  -10.31239 -10.29036  -1.13488  -1.12664  -1.11093
  Beta  occ. eigenvalues --   -1.09948  -1.08148  -1.05724  -1.01541  -0.96759
  Beta  occ. eigenvalues --   -0.86466  -0.82503  -0.79136  -0.72579  -0.72063
  Beta  occ. eigenvalues --   -0.68882  -0.66353  -0.64502  -0.60264  -0.59965
  Beta  occ. eigenvalues --   -0.57172  -0.56502  -0.54907  -0.53460  -0.51799
  Beta  occ. eigenvalues --   -0.50989  -0.50249  -0.48982  -0.47988  -0.47706
  Beta  occ. eigenvalues --   -0.47004  -0.46206  -0.44637  -0.44006  -0.42697
  Beta  occ. eigenvalues --   -0.42359  -0.38421  -0.38014  -0.37377  -0.35696
  Beta  occ. eigenvalues --   -0.34644  -0.34175  -0.32462  -0.32346  -0.32007
  Beta  occ. eigenvalues --   -0.31085  -0.30035  -0.28631
  Beta virt. eigenvalues --   -0.18370  -0.05191  -0.02391  -0.00917  -0.00048
  Beta virt. eigenvalues --    0.00011   0.00570   0.01412   0.02486   0.02849
  Beta virt. eigenvalues --    0.03123   0.03768   0.04508   0.04832   0.05734

 Mulliken charges and spin densities:
               1          2
     1  C    1.210070   0.013293
     2  C    0.630824   0.049317
     3  C    1.179886  -0.072446
     4  O   -0.622335   0.015630
     5  H   -0.527112  -0.006697
     6  O   -0.869312   0.009680
     7  H   -0.717643   0.008073
     8  C    0.901037   0.867248
     9  C    0.951025  -0.007430
    10  H   -0.424875   0.004072
    11  O   -0.673274   0.002788
    12  C    0.988412   0.000773
    13  H   -0.597254   0.001349
    14  O   -0.486213  -0.000011
    15  H   -0.286002  -0.000126
    16  H   -0.246778  -0.000038
    17  H    0.143230  -0.000389
    18  H    0.125655  -0.000759
    19  H    0.257160  -0.001431
    20  C    0.686273  -0.310617
    21  N   -0.587873   0.377146
    22  C    0.737317  -0.086734
    23  N   -0.404584  -0.003667
    24  C    0.669081  -0.146803
    25  H   -0.608969  -0.002163
    26  H   -0.049789  -0.001087
    27  O   -0.557273   0.185367
    28  O   -0.820681   0.105664
 Sum of Mulliken charges =  -0.00000   1.00000

 Dipole moment (field-independent basis, Debye):
    X=             -3.9361    Y=             -1.2393    Z=             -2.7557  Tot=              4.9621
 Quadrupole moment (field-independent basis, Debye-Ang):
   XX=           -117.1713   YY=           -100.1405   ZZ=            -99.1090
   XY=              7.8744   XZ=              7.4934   YZ=              2.4900

  Exact polarizability:     232.059      -1.341     139.462       1.408       5.336     103.048
 Approx polarizability:     305.972      -6.626     201.806      -0.558      12.022     159.518

                      1                      2                      3
                      A                      A                      A
 Frequencies --     39.3191                50.3285                88.5660
 Red. masses --      8.7932                 6.7029                 6.4486
 Frc consts  --      0.0080                 0.0100                 0.0298
 IR Inten    --      1.3479                 0.4506                 0.2270

                      4                      5                      6
                      A                      A                      A
 Frequencies --     94.0565               132.4295               142.1439
 Red. masses --      6.3396                 7.7468                 7.9310
 Frc consts  --      0.0330                 0.0800                 0.0944
 IR Inten    --      3.9007                 0.6523                 4.6822

                      7                      8                      9
                      A                      A                      A
 Frequencies --    160.4546               171.8354               217.2366
 Red. masses --      7.1575                 9.0471                 3.5004
 Frc consts  --      0.1086                 0.1574                 0.0973
 IR Inten    --      2.1921                 1.0308                10.8506

                     10                     11                     12
                      A                      A                      A
 Frequencies --    232.8586               252.8502               277.4016
 Red. masses --      1.6051                 3.4528                 4.0046
 Frc consts  --      0.0513                 0.1301                 0.1816
 IR Inten    --     51.0913                13.3538                 2.9346

                     13                     14                     15
                      A                      A                      A
 Frequencies --    316.3018               338.9951               351.6492
 Red. masses --      5.5180                 3.2870                 5.1197
 Frc consts  --      0.3253                 0.2226                 0.3730
 IR Inten    --      6.9814                 0.2505                16.7694

                     16                     17                     18
                      A                      A                      A
 Frequencies --    391.0944               406.3486               465.4394
 Red. masses --      3.8611                 9.8862                 3.9850
 Frc consts  --      0.3480                 0.9618                 0.5086
 IR Inten    --      4.6103                14.9046                 0.8874

                     19                     20                     21
                      A                      A                      A
 Frequencies --    520.6033               538.2632               555.4433
 Red. masses --      5.8781                 1.3099                 3.1771
 Frc consts  --      0.9386                 0.2236                 0.5775
 IR Inten    --     39.6180                58.5401                14.5690

                     22                     23                     24
                      A                      A                      A
 Frequencies --    563.3381               610.3118               645.7277
 Red. masses --      7.3228                 6.9545                 5.6348
 Frc consts  --      1.3692                 1.5262                 1.3843
 IR Inten    --      1.7496                 7.1184                 3.6336

                     25                     26                     27
                      A                      A                      A
 Frequencies --    697.9369               710.1444               719.9238
 Red. masses --      1.0977                 3.1917                 1.3673
 Frc consts  --      0.3150                 0.9484                 0.4175
 IR Inten    --    164.4361                11.6654                55.4587

                     28                     29                     30
                      A                      A                      A
 Frequencies --    743.8509               749.7493               770.3050
 Red. masses --      6.4165                 6.7454                 6.8565
 Frc consts  --      2.0918                 2.2340                 2.3970
 IR Inten    --      5.0040                 8.0945                 4.5359

                     31                     32                     33
                      A                      A                      A
 Frequencies --    801.6445               863.4308               887.9390
 Red. masses --      9.0563                 3.9507                 4.0275
 Frc consts  --      3.4290                 1.7353                 1.8709
 IR Inten    --     38.7369                15.7494                12.0992

                     34                     35                     36
                      A                      A                      A
 Frequencies --    899.5075               940.7823               954.7447
 Red. masses --      2.6865                 2.4357                 3.3631
 Frc consts  --      1.2807                 1.2701                 1.8062
 IR Inten    --      8.8279                28.0377                22.0366

                     37                     38                     39
                      A                      A                      A
 Frequencies --    972.1842               995.9174              1047.3348
 Red. masses --      1.7495                 2.3776                 2.9060
 Frc consts  --      0.9742                 1.3894                 1.8781
 IR Inten    --     17.2766                20.4209               112.0238

                     40                     41                     42
                      A                      A                      A
 Frequencies --   1081.2806              1104.2696              1125.0370
 Red. masses --      2.0299                 3.4043                 3.3000
 Frc consts  --      1.3983                 2.4458                 2.4609
 IR Inten    --     52.6110                71.5224                71.0842

                     43                     44                     45
                      A                      A                      A
 Frequencies --   1153.6044              1159.6176              1208.2168
 Red. masses --      3.7643                 2.5719                 1.2510
 Frc consts  --      2.9516                 2.0376                 1.0760
 IR Inten    --    113.4971               244.1361                21.2718

                     46                     47                     48
                      A                      A                      A
 Frequencies --   1212.7953              1231.5542              1241.3944
 Red. masses --      1.3935                 2.5586                 1.1285
 Frc consts  --      1.2076                 2.2865                 1.0246
 IR Inten    --     23.9833               116.4682                10.9226

                     49                     50                     51
                      A                      A                      A
 Frequencies --   1256.3893              1273.9623              1287.4011
 Red. masses --      2.3428                 1.7252                 2.4442
 Frc consts  --      2.1789                 1.6497                 2.3868
 IR Inten    --     26.5489                 5.9624                16.8877

                     52                     53                     54
                      A                      A                      A
 Frequencies --   1296.7414              1325.8361              1336.0088
 Red. masses --      1.5431                 1.4007                 1.3279
 Frc consts  --      1.5288                 1.4507                 1.3965
 IR Inten    --      2.3935                 0.5278                64.0234

                     55                     56                     57
                      A                      A                      A
 Frequencies --   1354.6043              1380.8618              1385.6201
 Red. masses --      1.6274                 1.3266                 2.2633
 Frc consts  --      1.7595                 1.4904                 2.5603
 IR Inten    --      8.9847                26.0259                10.3473

                     58                     59                     60
                      A                      A                      A
 Frequencies --   1404.7471              1416.7023              1419.6875
 Red. masses --      1.9673                 1.9797                 1.8071
 Frc consts  --      2.2873                 2.3411                 2.1459
 IR Inten    --     18.1988                11.4707                 7.5813

                     61                     62                     63
                      A                      A                      A
 Frequencies --   1426.2017              1448.4509              1461.4459
 Red. masses --      1.3792                 1.2170                 2.9732
 Frc consts  --      1.6529                 1.5043                 3.7414
 IR Inten    --     94.9130                24.8409                73.2113

                     64                     65                     66
                      A                      A                      A
 Frequencies --   1471.4229              1523.4637              1736.7673
 Red. masses --      1.0878                 5.0175                 7.8381
 Frc consts  --      1.3876                 6.8613                13.9298
 IR Inten    --      3.6386                33.9159               496.6460

                     67                     68                     69
                      A                      A                      A
 Frequencies --   1744.8491              2981.0711              3022.9562
 Red. masses --     12.5289                 1.0829                 1.0704
 Frc consts  --     22.4739                 5.6700                 5.7629
 IR Inten    --     99.6496                37.4964                18.7105

                     70                     71                     72
                      A                      A                      A
 Frequencies --   3037.2008              3101.8941              3132.7490
 Red. masses --      1.0802                 1.1000                 1.0871
 Frc consts  --      5.8709                 6.2357                 6.2858
 IR Inten    --     90.8590                30.7268                 0.9770

                     73                     74                     75
                      A                      A                      A
 Frequencies --   3140.2759              3162.2058              3611.9733
 Red. masses --      1.0886                 1.0914                 1.0779
 Frc consts  --      6.3250                 6.4301                 8.2855
 IR Inten    --      6.1128                 6.2245                85.6070

                     76                     77                     78
                      A                      A                      A
 Frequencies --   3657.2896              3753.7057              3863.0083
 Red. masses --      1.0678                 1.0649                 1.0666
 Frc consts  --      8.4155                 8.8410                 9.3782
 IR Inten    --    513.1684               119.3781                35.7061

 - Thermochemistry -
 -------------------
 Temperature   298.150 Kelvin.  Pressure   1.00000 Atm.
 Atom     1 has atomic number  6 and mass  12.00000

 Molecular mass:   243.06171 amu.
 Principal axes and moments of inertia in atomic units:
                           1         2         3
     Eigenvalues --  1940.809705828.556386942.43391
           X            0.99999  -0.00246   0.00424
           Y            0.00244   0.99999   0.00434
           Z           -0.00425  -0.00433   0.99998
 This molecule is an asymmetric top.
 Rotational symmetry number  1.
 Warning -- assumption of classical behavior for rotation
           may cause significant error
 Rotational temperatures (Kelvin)      0.04463     0.01486     0.01248
 Rotational constants (GHZ):           0.92989     0.30964     0.25996
 Zero-point vibrational energy     563750.1 (Joules/Mol)
                                  134.73951 (Kcal/Mol)
 Warning -- explicit consideration of  23 degrees of freedom as
           vibrations may cause significant error
 Vibrational temperatures:     56.57    72.41   127.43   135.33   190.54
          (Kelvin)            204.51   230.86   247.23   312.55   335.03
                              363.79   399.12   455.09   487.74   505.94
                              562.70   584.65   669.66   749.03   774.44
                              799.16   810.52   878.10   929.06  1004.18
                             1021.74  1035.81  1070.24  1078.72  1108.30
                             1153.39  1242.28  1277.55  1294.19  1353.58
                             1373.66  1398.76  1432.90  1506.88  1555.72
                             1588.80  1618.68  1659.78  1668.43  1738.35
                             1744.94  1771.93  1786.09  1807.66  1832.95
                             1852.28  1865.72  1907.58  1922.22  1948.97
                             1986.75  1993.60  2021.12  2038.32  2042.61
                             2051.99  2084.00  2102.69  2117.05  2191.92
                             2498.82  2510.45  4289.10  4349.36  4369.85
                             4462.93  4507.33  4518.16  4549.71  5196.82
                             5262.02  5400.75  5558.01

 Zero-point correction=                           0.214721 (Hartree/Particle)
 Thermal correction to Energy=                    0.229735
 Thermal correction to Enthalpy=                  0.230679
 Thermal correction to Gibbs Free Energy=         0.171483
 Sum of electronic and zero-point Energies=           -909.348422
 Sum of electronic and thermal Energies=              -909.333408
 Sum of electronic and thermal Enthalpies=            -909.332464
 Sum of electronic and thermal Free Energies=         -909.391660

                     E (Thermal)             CV                S
                      KCal/Mol        Cal/Mol-Kelvin    Cal/Mol-Kelvin
 Total                  144.161             57.086            124.588
 Electronic               0.000              0.000              1.377
 Translational            0.889              2.981             42.365
 Rotational               0.889              2.981             32.729
 Vibrational            142.383             51.124             48.116
 Vibration     1          0.594              1.981              5.293
 Vibration     2          0.595              1.977              4.804
 Vibration     3          0.601              1.957              3.691
 Vibration     4          0.603              1.953              3.574
 Vibration     5          0.613              1.921              2.910
 Vibration     6          0.616              1.911              2.775
 Vibration     7          0.622              1.891              2.544
 Vibration     8          0.626              1.877              2.415
 Vibration     9          0.646              1.815              1.982
 Vibration    10          0.654              1.791              1.857
 Vibration    11          0.664              1.758              1.711
 Vibration    12          0.678              1.715              1.550
 Vibration    13          0.703              1.642              1.329
 Vibration    14          0.719              1.598              1.217
 Vibration    15          0.728              1.572              1.159
 Vibration    16          0.759              1.489              0.996
 Vibration    17          0.771              1.456              0.940
 Vibration    18          0.823              1.327              0.750
 Vibration    19          0.876              1.204              0.609
 Vibration    20          0.893              1.165              0.569
 Vibration    21          0.911              1.128              0.533
 Vibration    22          0.919              1.111              0.517
 Vibration    23          0.969              1.010              0.432

 Optimization completed.
    -- Stationary point found.
 Normal termination of Gaussian 16 at Mon Oct 28 00:41:14 2024.
