 Gaussian 16, Revision C.01,
 Gaussian 16:  EM64L-G16RevC.01  3-Jul-2019

 ------------------------------------------------------
 # PBE1PBE/aug-cc-pVDZ opt freq EmpiricalDispersion=GD3
 ------------------------------------------------------

 ----
 blah
 ----
 Symbolic Z-matrix:
 Charge = -1 Multiplicity = 1

 SCF Done:  E(RPBE1PBE) =  -909.684858045     A.U. after   14 cycles
 SCF Done:  E(RPBE1PBE) =  -909.689552565     A.U. after   14 cycles
 SCF Done:  E(RPBE1PBE) =  -909.690417603     A.U. after   14 cycles
 SCF Done:  E(RPBE1PBE) =  -909.696407730     A.U. after   13 cycles
 SCF Done:  E(RPBE1PBE) =  -909.696889853     A.U. after   12 cycles
 SCF Done:  E(RPBE1PBE) =  -909.697564985     A.U. after   14 cycles
 SCF Done:  E(RPBE1PBE) =  -909.698158131     A.U. after   13 cycles
 SCF Done:  E(RPBE1PBE) =  -909.698242455     A.U. after   11 cycles
 SCF Done:  E(RPBE1PBE) =  -909.698286787     A.U. after   11 cycles
 SCF Done:  E(RPBE1PBE) =  -909.698357327     A.U. after   11 cycles
 SCF Done:  E(RPBE1PBE) =  -909.700328351     A.U. after   10 cycles
 SCF Done:  E(RPBE1PBE) =  -909.700194885     A.U. after   13 cycles
 SCF Done:  E(RPBE1PBE) =  -909.700522383     A.U. after   12 cycles
 SCF Done:  E(RPBE1PBE) =  -909.700616038     A.U. after   11 cycles
 SCF Done:  E(RPBE1PBE) =  -909.700621739     A.U. after    9 cycles
 SCF Done:  E(RPBE1PBE) =  -909.700628129     A.U. after   10 cycles
 SCF Done:  E(RPBE1PBE) =  -909.700637331     A.U. after   10 cycles
 SCF Done:  E(RPBE1PBE) =  -909.700640201     A.U. after    9 cycles
 SCF Done:  E(RPBE1PBE) =  -909.700640952     A.U. after    8 cycles
 Optimization completed.
    -- Stationary point found.
 Normal termination of Gaussian 16 at Sun Oct 27 02:06:21 2024.

 ----------------------------------------------------------------------
 #N Geom=AllCheck Guess=TCheck SCRF=Check GenChk RPBE1PBE/Aug-CC-pVDZ F
 req
 ----------------------------------------------------------------------

 Structure from the checkpoint file:  "/scr/Gau-73389.chk"
 ----
 blah
 ----
 Charge = -1 Multiplicity = 1

                         Standard orientation:
 ---------------------------------------------------------------------
 Center     Atomic      Atomic             Coordinates (Angstroms)
 Number     Number       Type             X           Y           Z
 ---------------------------------------------------------------------
      1          6           0       -2.761830   -0.443715    0.269927
      2          6           0       -1.375685   -0.736317    0.850963
      3          6           0       -0.500369   -0.793830   -0.416179
      4          8           0       -1.338650   -1.914260    1.622000
      5          1           0       -1.056618    0.094793    1.487162
      6          8           0       -1.139622    0.103340   -1.351501
      7          1           0       -0.569308   -1.827441   -0.812881
      8          6           0        0.941749   -0.474643   -0.261946
      9          6           0       -2.447892    0.468727   -0.908373
     10          1           0       -3.440975    0.011217    0.998657
     11          8           0       -3.383781   -1.669430   -0.144977
     12          6           0       -2.511394    1.956933   -0.581811
     13          1           0       -3.160096    0.273585   -1.731632
     14          8           0       -1.896005    2.311696    0.621561
     15          1           0       -3.573738    2.245776   -0.506653
     16          1           0       -2.078335    2.496058   -1.445756
     17          1           0       -2.972655   -1.934171   -0.975027
     18          1           0       -1.983034   -2.509240    1.215923
     19          1           0       -0.929993    2.092916    0.571738
     20          6           0        1.930629   -1.372067   -0.656099
     21          7           0        3.250889   -1.236323   -0.579576
     22          6           0        3.717566   -0.064982   -0.057044
     23          7           0        2.758328    0.880083    0.343707
     24          6           0        1.386472    0.769639    0.277991
     25          1           0        1.590843   -2.325457   -1.084493
     26          1           0        3.122036    1.745224    0.721277
     27          8           0        4.908783    0.223101    0.084076
     28          8           0        0.688258    1.729547    0.682367
 ---------------------------------------------------------------------

 SCF Done:  E(RPBE1PBE) =  -909.700640952     A.U. after    1 cycles

 The electronic state is 1-A.
 Alpha  occ. eigenvalues --  -19.15455 -19.12410 -19.12322 -19.09265 -19.06693
 Alpha  occ. eigenvalues --  -19.04027 -14.30227 -14.23881 -10.20953 -10.20765
 Alpha  occ. eigenvalues --  -10.19063 -10.18368 -10.17706 -10.17260 -10.17155
 Alpha  occ. eigenvalues --  -10.14855 -10.09855  -0.99550  -0.96222  -0.95115
 Alpha  occ. eigenvalues --   -0.94733  -0.92812  -0.91967  -0.83134  -0.78176
 Alpha  occ. eigenvalues --   -0.70570  -0.69406  -0.64586  -0.58120  -0.54551
 Alpha  occ. eigenvalues --   -0.53252  -0.52266  -0.49873  -0.45625  -0.43741
 Alpha  occ. eigenvalues --   -0.42787  -0.41388  -0.40886  -0.38431  -0.36934
 Alpha  occ. eigenvalues --   -0.35725  -0.35094  -0.34336  -0.33324  -0.32386
 Alpha  occ. eigenvalues --   -0.31574  -0.30348  -0.29761  -0.29206  -0.28110
 Alpha  occ. eigenvalues --   -0.26702  -0.25639  -0.24299  -0.23281  -0.21818
 Alpha  occ. eigenvalues --   -0.20725  -0.19257  -0.17521  -0.16758  -0.15536
 Alpha  occ. eigenvalues --   -0.15094  -0.14418  -0.13040  -0.08931
 Alpha virt. eigenvalues --    0.07207   0.08467   0.09478   0.10487   0.11017
 Alpha virt. eigenvalues --    0.11222   0.11538   0.11945   0.12387   0.13418
 Alpha virt. eigenvalues --    0.13860   0.14904   0.15294   0.15796   0.15836

 Mulliken charges:
               1
     1  C    1.255551
     2  C    0.813784
     3  C    0.913774
     4  O   -0.645674
     5  H   -0.563175
     6  O   -0.850315
     7  H   -0.775001
     8  C    1.171607
     9  C    0.832618
    10  H   -0.476125
    11  O   -0.668168
    12  C    0.916310
    13  H   -0.537089
    14  O   -0.541999
    15  H   -0.306537
    16  H   -0.238661
    17  H    0.113964
    18  H    0.087820
    19  H    0.339819
    20  C    0.619385
    21  N   -0.666203
    22  C    0.658747
    23  N   -0.414361
    24  C    0.516010
    25  H   -0.696983
    26  H   -0.105699
    27  O   -0.722601
    28  O   -1.030798
 Sum of Mulliken charges =  -1.00000

 Dipole moment (field-independent basis, Debye):
    X=             -9.7087    Y=             -1.0312    Z=             -1.9554  Tot=              9.9572
 Quadrupole moment (field-independent basis, Debye-Ang):
   XX=           -167.4839   YY=           -113.8701   ZZ=           -108.2302
   XY=              8.5052   XZ=              8.1054   YZ=              0.2183

  Exact polarizability:     208.845      -6.086     149.984       2.535       9.013     114.306
 Approx polarizability:     268.935     -10.847     221.126       0.165      22.552     174.767

                      1                      2                      3
                      A                      A                      A
 Frequencies --     50.8128                66.7266                93.7924
 Red. masses --      8.9007                 6.5702                 5.9465
 Frc consts  --      0.0135                 0.0172                 0.0308
 IR Inten    --      1.0433                 0.4965                 0.4467

                      4                      5                      6
                      A                      A                      A
 Frequencies --    107.6791               146.8153               160.0670
 Red. masses --      5.8993                 7.6918                 9.1219
 Frc consts  --      0.0403                 0.0977                 0.1377
 IR Inten    --      6.0565                 1.9409                 1.6368

                      7                      8                      9
                      A                      A                      A
 Frequencies --    171.7019               185.9465               217.4288
 Red. masses --      7.5342                10.5155                 4.5763
 Frc consts  --      0.1309                 0.2142                 0.1275
 IR Inten    --      4.3425                 6.3082                 5.4555

                     10                     11                     12
                      A                      A                      A
 Frequencies --    253.2061               267.4172               311.6182
 Red. masses --      7.4638                 3.9619                 1.3435
 Frc consts  --      0.2819                 0.1669                 0.0769
 IR Inten    --      3.9360                 6.3821                33.7196

                     13                     14                     15
                      A                      A                      A
 Frequencies --    335.5228               354.8520               361.9124
 Red. masses --      2.8049                 3.4248                 7.3030
 Frc consts  --      0.1860                 0.2541                 0.5636
 IR Inten    --      0.9815                28.9694                 4.5868

                     16                     17                     18
                      A                      A                      A
 Frequencies --    411.1725               445.8371               465.4943
 Red. masses --     11.0819                 4.3652                 2.8767
 Frc consts  --      1.1039                 0.5112                 0.3673
 IR Inten    --     17.3810                 0.3595                 5.0776

                     19                     20                     21
                      A                      A                      A
 Frequencies --    493.1021               540.6303               561.1437
 Red. masses --      1.1550                 5.2037                 5.2259
 Frc consts  --      0.1655                 0.8961                 0.9695
 IR Inten    --     87.2571                67.4492                 1.7991

                     22                     23                     24
                      A                      A                      A
 Frequencies --    583.5872               625.4668               652.7044
 Red. masses --      9.8327                 6.9679                 6.1668
 Frc consts  --      1.9730                 1.6061                 1.5479
 IR Inten    --      1.6490                13.3223                 6.9480

                     25                     26                     27
                      A                      A                      A
 Frequencies --    704.5320               716.5456               767.5140
 Red. masses --      1.1751                 4.2707                 5.7981
 Frc consts  --      0.3436                 1.2919                 2.0124
 IR Inten    --     52.8688                 0.5093                19.7766

                     28                     29                     30
                      A                      A                      A
 Frequencies --    786.6592               801.1847               814.8524
 Red. masses --     10.1891                 6.7563                10.9115
 Frc consts  --      3.7150                 2.5552                 4.2687
 IR Inten    --      0.7573                 2.8609                31.6835

                     31                     32                     33
                      A                      A                      A
 Frequencies --    866.0704               885.3368               901.8719
 Red. masses --      3.9399                 3.0019                 1.1054
 Frc consts  --      1.7412                 1.3863                 0.5297
 IR Inten    --     23.1938                20.5134                92.6483

                     34                     35                     36
                      A                      A                      A
 Frequencies --    906.9212               948.8847               980.3746
 Red. masses --      3.2547                 2.3818                 2.0377
 Frc consts  --      1.5773                 1.2635                 1.1539
 IR Inten    --     51.2827                 1.2364                58.0738

                     37                     38                     39
                      A                      A                      A
 Frequencies --    988.8266              1000.4266              1025.1463
 Red. masses --      2.6537                 2.1844                 2.2789
 Frc consts  --      1.5288                 1.2881                 1.4111
 IR Inten    --     17.5609                22.7424                98.4218

                     40                     41                     42
                      A                      A                      A
 Frequencies --   1063.2789              1105.2622              1135.4967
 Red. masses --      3.2519                 2.4674                 2.8995
 Frc consts  --      2.1661                 1.7759                 2.2027
 IR Inten    --     37.7956                84.3737               121.2160

                     43                     44                     45
                      A                      A                      A
 Frequencies --   1145.7921              1168.3506              1191.3963
 Red. masses --      3.6612                 2.8525                 3.7632
 Frc consts  --      2.8319                 2.2941                 3.1471
 IR Inten    --     29.0097                95.7308                15.8093

                     46                     47                     48
                      A                      A                      A
 Frequencies --   1208.0244              1231.4987              1253.7489
 Red. masses --      1.2902                 1.3502                 1.5772
 Frc consts  --      1.1093                 1.2064                 1.4606
 IR Inten    --     17.1387                16.4301                 9.8050

                     49                     50                     51
                      A                      A                      A
 Frequencies --   1255.1586              1275.2223              1290.4515
 Red. masses --      1.4786                 1.5982                 1.4135
 Frc consts  --      1.3724                 1.5313                 1.3868
 IR Inten    --      6.9370                44.6301                 5.6073

                     52                     53                     54
                      A                      A                      A
 Frequencies --   1301.2362              1331.6609              1345.0951
 Red. masses --      1.7946                 1.5476                 1.5062
 Frc consts  --      1.7903                 1.6169                 1.6056
 IR Inten    --      0.7322                 7.3356                50.5241

                     55                     56                     57
                      A                      A                      A
 Frequencies --   1351.9389              1354.6546              1380.3525
 Red. masses --      2.4008                 1.5486                 1.3114
 Frc consts  --      2.5853                 1.6743                 1.4722
 IR Inten    --    119.4072                12.0001                30.0810

                     58                     59                     60
                      A                      A                      A
 Frequencies --   1390.4724              1414.7276              1433.0432
 Red. masses --      1.8443                 1.4272                 2.3923
 Frc consts  --      2.1009                 1.6830                 2.8945
 IR Inten    --      4.1888                18.3427                27.5593

                     61                     62                     63
                      A                      A                      A
 Frequencies --   1438.0467              1462.7775              1494.6101
 Red. masses --      1.3368                 1.0927                 1.2138
 Frc consts  --      1.6288                 1.3776                 1.5975
 IR Inten    --     56.6439                 2.3270                18.1117

                     64                     65                     66
                      A                      A                      A
 Frequencies --   1509.7641              1634.7890              1673.6392
 Red. masses --      5.8160                 6.9816                 6.7654
 Frc consts  --      7.8107                10.9933                11.1653
 IR Inten    --     77.2018               454.4226               964.7630

                     67                     68                     69
                      A                      A                      A
 Frequencies --   1732.9250              2954.0426              2983.2864
 Red. masses --      9.8524                 1.0829                 1.0649
 Frc consts  --     17.4322                 5.5676                 5.5841
 IR Inten    --    987.5049                65.9093                50.7745

                     70                     71                     72
                      A                      A                      A
 Frequencies --   3003.3977              3049.5937              3097.0101
 Red. masses --      1.0828                 1.0998                 1.0887
 Frc consts  --      5.7550                 6.0261                 6.1525
 IR Inten    --    167.7389               113.6007                55.4915

                     73                     74                     75
                      A                      A                      A
 Frequencies --   3135.5398              3152.7588              3277.3774
 Red. masses --      1.0882                 1.0876                 1.0742
 Frc consts  --      6.3035                 6.3696                 6.7981
 IR Inten    --     19.9706                 2.8713              1254.5170

                     76                     77                     78
                      A                      A                      A
 Frequencies --   3636.3716              3788.4419              3847.7895
 Red. masses --      1.0770                 1.0649                 1.0660
 Frc consts  --      8.3907                 9.0048                 9.2992
 IR Inten    --     24.4462                53.1234                20.0269

 - Thermochemistry -
 -------------------
 Temperature   298.150 Kelvin.  Pressure   1.00000 Atm.
 Atom     1 has atomic number  6 and mass  12.00000

 Molecular mass:   243.06171 amu.
 Principal axes and moments of inertia in atomic units:
                           1         2         3
     Eigenvalues --  1939.399425894.572576848.15664
           X            0.99999  -0.00236   0.00456
           Y            0.00236   1.00000   0.00078
           Z           -0.00456  -0.00077   0.99999
 This molecule is an asymmetric top.
 Rotational symmetry number  1.
 Warning -- assumption of classical behavior for rotation
           may cause significant error
 Rotational temperatures (Kelvin)      0.04466     0.01469     0.01265
 Rotational constants (GHZ):           0.93057     0.30617     0.26354
 Zero-point vibrational energy     564989.1 (Joules/Mol)
                                  135.03565 (Kcal/Mol)
 Warning -- explicit consideration of  22 degrees of freedom as
           vibrations may cause significant error
 Vibrational temperatures:     73.11    96.00   134.95   154.93   211.23
          (Kelvin)            230.30   247.04   267.54   312.83   364.31
                              384.75   448.35   482.74   510.55   520.71
                              591.59   641.46   669.74   709.46   777.85
                              807.36   839.65   899.91   939.10  1013.66
                             1030.95  1104.28  1131.83  1152.73  1172.39
                             1246.08  1273.80  1297.59  1304.86  1365.23
                             1410.54  1422.70  1439.39  1474.96  1529.82
                             1590.23  1633.73  1648.54  1681.00  1714.15
                             1738.08  1771.85  1803.87  1805.89  1834.76
                             1856.67  1872.19  1915.96  1935.29  1945.14
                             1949.05  1986.02  2000.58  2035.48  2061.83
                             2069.03  2104.61  2150.41  2172.21  2352.10
                             2407.99  2493.29  4250.21  4292.28  4321.22
                             4387.69  4455.91  4511.34  4536.12  4715.42
                             5231.93  5450.72  5536.11

 Zero-point correction=                           0.215193 (Hartree/Particle)
 Thermal correction to Energy=                    0.229708
 Thermal correction to Enthalpy=                  0.230652
 Thermal correction to Gibbs Free Energy=         0.173679
 Sum of electronic and zero-point Energies=           -909.485448
 Sum of electronic and thermal Energies=              -909.470933
 Sum of electronic and thermal Enthalpies=            -909.469989
 Sum of electronic and thermal Free Energies=         -909.526962

                     E (Thermal)             CV                S
                      KCal/Mol        Cal/Mol-Kelvin    Cal/Mol-Kelvin
 Total                  144.144             56.032            119.909
 Electronic               0.000              0.000              0.000
 Translational            0.889              2.981             42.365
 Rotational               0.889              2.981             32.726
 Vibrational            142.366             50.070             44.818
 Vibration     1          0.595              1.977              4.786
 Vibration     2          0.598              1.970              4.248
 Vibration     3          0.603              1.954              3.579
 Vibration     4          0.606              1.943              3.310
 Vibration     5          0.617              1.906              2.713
 Vibration     6          0.622              1.891              2.549
 Vibration     7          0.626              1.877              2.417
 Vibration     8          0.632              1.859              2.268
 Vibration     9          0.646              1.815              1.980
 Vibration    10          0.664              1.757              1.708
 Vibration    11          0.673              1.733              1.613
 Vibration    12          0.700              1.652              1.354
 Vibration    13          0.717              1.605              1.233
 Vibration    14          0.731              1.565              1.145
 Vibration    15          0.736              1.551              1.114
 Vibration    16          0.775              1.446              0.922
 Vibration    17          0.805              1.370              0.808
 Vibration    18          0.823              1.327              0.750
 Vibration    19          0.849              1.265              0.676
 Vibration    20          0.896              1.160              0.564
 Vibration    21          0.917              1.115              0.522
 Vibration    22          0.940              1.067              0.479

                           ! Non-Optimized Parameters !
 Normal termination of Gaussian 16 at Sun Oct 27 02:21:19 2024.
