 Gaussian 16, Revision C.01,
 Gaussian 16:  EM64L-G16RevC.01  3-Jul-2019

 ------------------------------------------------------
 # PBE1PBE/aug-cc-pVDZ opt freq EmpiricalDispersion=GD3
 ------------------------------------------------------

 ----
 blah
 ----
 Symbolic Z-matrix:
 Charge =  0 Multiplicity = 2

 SCF Done:  E(UPBE1PBE) =  -909.519909606     A.U. after   32 cycles
 SCF Done:  E(UPBE1PBE) =  -909.518746636     A.U. after   29 cycles
 SCF Done:  E(UPBE1PBE) =  -909.523966851     A.U. after   25 cycles
 SCF Done:  E(UPBE1PBE) =  -909.525218633     A.U. after   27 cycles
 SCF Done:  E(UPBE1PBE) =  -909.526233529     A.U. after   21 cycles
 SCF Done:  E(UPBE1PBE) =  -909.526556784     A.U. after   23 cycles
 SCF Done:  E(UPBE1PBE) =  -909.527140004     A.U. after   21 cycles
 SCF Done:  E(UPBE1PBE) =  -909.527412696     A.U. after   22 cycles
 SCF Done:  E(UPBE1PBE) =  -909.527646799     A.U. after   22 cycles
 SCF Done:  E(UPBE1PBE) =  -909.527887420     A.U. after   20 cycles
 SCF Done:  E(UPBE1PBE) =  -909.528761797     A.U. after   21 cycles
 SCF Done:  E(UPBE1PBE) =  -909.528768203     A.U. after   16 cycles
 SCF Done:  E(UPBE1PBE) =  -909.528780630     A.U. after   22 cycles
 SCF Done:  E(UPBE1PBE) =  -909.528788393     A.U. after   17 cycles
 SCF Done:  E(UPBE1PBE) =  -909.528789298     A.U. after   15 cycles
 SCF Done:  E(UPBE1PBE) =  -909.528789724     A.U. after   14 cycles
 SCF Done:  E(UPBE1PBE) =  -909.528790218     A.U. after   17 cycles
 SCF Done:  E(UPBE1PBE) =  -909.528790336     A.U. after   13 cycles
 SCF Done:  E(UPBE1PBE) =  -909.528790438     A.U. after   16 cycles
 Optimization completed.
    -- Stationary point found.
 Normal termination of Gaussian 16 at Mon Oct 28 02:51:41 2024.

 ----------------------------------------------------------------------
 #N Geom=AllCheck Guess=TCheck SCRF=Check GenChk UPBE1PBE/Aug-CC-pVDZ F
 req
 ----------------------------------------------------------------------

 Structure from the checkpoint file:  "/scr/Gau-53394.chk"
 ----
 blah
 ----
 Charge =  0 Multiplicity = 2

                         Standard orientation:
 ---------------------------------------------------------------------
 Center     Atomic      Atomic             Coordinates (Angstroms)
 Number     Number       Type             X           Y           Z
 ---------------------------------------------------------------------
      1          6           0       -2.705706   -0.560677    0.212311
      2          6           0       -1.301685   -0.866153    0.740748
      3          6           0       -0.474431   -0.657485   -0.578906
      4          8           0       -1.150947   -2.131795    1.295589
      5          1           0       -1.003513   -0.107445    1.470649
      6          8           0       -1.101453    0.387209   -1.263166
      7          1           0       -0.560528   -1.605038   -1.145941
      8          6           0        0.944923   -0.373892   -0.292237
      9          6           0       -2.469157    0.528190   -0.832222
     10          1           0       -3.365321   -0.222660    1.023293
     11          8           0       -3.162965   -1.784434   -0.356500
     12          6           0       -2.678246    1.937903   -0.303890
     13          1           0       -3.115864    0.358672   -1.708401
     14          8           0       -2.036497    2.154264    0.922053
     15          1           0       -3.756671    2.096692   -0.147753
     16          1           0       -2.344003    2.647246   -1.080574
     17          1           0       -4.103926   -1.721960   -0.538074
     18          1           0       -1.789442   -2.704112    0.845529
     19          1           0       -1.070782    2.108093    0.771726
     20          6           0        1.855147   -1.435468   -0.306788
     21          7           0        3.133276   -1.180849   -0.121264
     22          6           0        3.653860    0.186666   -0.032407
     23          7           0        2.786330    1.179056    0.108834
     24          6           0        1.452986    0.956531    0.156742
     25          1           0        1.543726   -2.467943   -0.473776
     26          1           0        3.839706   -1.909291   -0.129478
     27          8           0        4.877666    0.232712   -0.093227
     28          8           0        0.652099    1.797869    0.572713
 ---------------------------------------------------------------------

 SCF Done:  E(UPBE1PBE) =  -909.528790438     A.U. after    1 cycles

 The electronic state is 2-A.
 Alpha  occ. eigenvalues --  -19.27305 -19.26299 -19.26043 -19.22776 -19.20880
 Alpha  occ. eigenvalues --  -19.20587 -14.52122 -14.39113 -10.38099 -10.36335
 Alpha  occ. eigenvalues --  -10.35250 -10.32907 -10.32367 -10.32147 -10.31876
 Alpha  occ. eigenvalues --  -10.30452 -10.28209  -1.12970  -1.12248  -1.10308
 Alpha  occ. eigenvalues --   -1.08638  -1.07707  -1.04758  -1.04430  -0.94153
 Alpha  occ. eigenvalues --   -0.88372  -0.82807  -0.79966  -0.73096  -0.69794
 Alpha  occ. eigenvalues --   -0.68278  -0.66704  -0.64353  -0.61460  -0.60730
 Alpha  occ. eigenvalues --   -0.58931  -0.57020  -0.54320  -0.52565  -0.52115
 Alpha  occ. eigenvalues --   -0.51349  -0.50766  -0.49303  -0.48151  -0.47663
 Alpha  occ. eigenvalues --   -0.45956  -0.45292  -0.44718  -0.42657  -0.42360
 Alpha  occ. eigenvalues --   -0.41724  -0.41197  -0.40307  -0.37367  -0.35212
 Alpha  occ. eigenvalues --   -0.33840  -0.33020  -0.32272  -0.31830  -0.30318
 Alpha  occ. eigenvalues --   -0.28725  -0.28558  -0.28299  -0.26998
 Alpha virt. eigenvalues --   -0.07311  -0.02964  -0.02394  -0.01383   0.00031
 Alpha virt. eigenvalues --    0.00291   0.01718   0.01853   0.02336   0.03665
 Alpha virt. eigenvalues --    0.04149   0.04509   0.04645   0.05676   0.05815

  Beta  occ. eigenvalues --  -19.27303 -19.26212 -19.26012 -19.22189 -19.20878
  Beta  occ. eigenvalues --  -19.20501 -14.51520 -14.39058 -10.38217 -10.36305
  Beta  occ. eigenvalues --  -10.35330 -10.32921 -10.32003 -10.31855 -10.31674
  Beta  occ. eigenvalues --  -10.30456 -10.28208  -1.12826  -1.11384  -1.10179
  Beta  occ. eigenvalues --   -1.08579  -1.07457  -1.04521  -1.03529  -0.93869
  Beta  occ. eigenvalues --   -0.86969  -0.82654  -0.79424  -0.72774  -0.69435
  Beta  occ. eigenvalues --   -0.68052  -0.66515  -0.64172  -0.61111  -0.60473
  Beta  occ. eigenvalues --   -0.58724  -0.56870  -0.54219  -0.52170  -0.51172
  Beta  occ. eigenvalues --   -0.50729  -0.49980  -0.49152  -0.47886  -0.47161
  Beta  occ. eigenvalues --   -0.45650  -0.45066  -0.44252  -0.42341  -0.41707
  Beta  occ. eigenvalues --   -0.41059  -0.40433  -0.39022  -0.37242  -0.35076
  Beta  occ. eigenvalues --   -0.33449  -0.32715  -0.31752  -0.30457  -0.29792
  Beta  occ. eigenvalues --   -0.28439  -0.27013  -0.26749
  Beta virt. eigenvalues --   -0.19513  -0.05013  -0.02895  -0.02324  -0.00525
  Beta virt. eigenvalues --    0.00189   0.00394   0.01754   0.01949   0.02380
  Beta virt. eigenvalues --    0.03695   0.04196   0.04525   0.04682   0.05758

 Mulliken charges and spin densities:
               1          2
     1  C    1.230220   0.019029
     2  C    0.591444   0.062198
     3  C    1.178304  -0.055057
     4  O   -0.641220   0.019629
     5  H   -0.521432  -0.006076
     6  O   -0.887214   0.019896
     7  H   -0.621980   0.019703
     8  C    0.792296   0.659616
     9  C    0.809867  -0.008955
    10  H   -0.331404   0.003488
    11  O   -0.766583  -0.000430
    12  C    1.028813   0.001628
    13  H   -0.524002   0.002601
    14  O   -0.489937   0.000673
    15  H   -0.286014  -0.000011
    16  H   -0.259982  -0.000155
    17  H    0.141347   0.000595
    18  H    0.130420  -0.001048
    19  H    0.277713  -0.000456
    20  C    1.051346  -0.135208
    21  N   -0.486896   0.300968
    22  C    0.708490  -0.079228
    23  N   -0.541710   0.032111
    24  C    0.491619  -0.082386
    25  H   -0.639273  -0.006520
    26  H   -0.047643  -0.018187
    27  O   -0.582444   0.220588
    28  O   -0.804143   0.030998
 Sum of Mulliken charges =  -0.00000   1.00000

 Dipole moment (field-independent basis, Debye):
    X=             -5.1297    Y=             -8.1454    Z=             -2.7476  Tot=             10.0106
 Quadrupole moment (field-independent basis, Debye-Ang):
   XX=            -98.3288   YY=           -100.1244   ZZ=           -102.2488
   XY=            -14.0562   XZ=              3.1713   YZ=             -1.1761

  Exact polarizability:     297.499       5.629     147.715       1.085       2.995     101.563
 Approx polarizability:     388.238      -1.960     217.231      -4.010       8.706     158.598

                      1                      2                      3
                      A                      A                      A
 Frequencies --     37.4529                42.8491                90.6120
 Red. masses --      5.9997                 8.6732                 5.6416
 Frc consts  --      0.0050                 0.0094                 0.0273
 IR Inten    --     10.1138                 3.1856                 8.7018

                      4                      5                      6
                      A                      A                      A
 Frequencies --     96.7188               131.2373               161.4501
 Red. masses --      5.2844                 6.4996                 8.2295
 Frc consts  --      0.0291                 0.0660                 0.1264
 IR Inten    --      6.4365                 3.8467                 4.6525

                      7                      8                      9
                      A                      A                      A
 Frequencies --    171.4928               175.4017               204.0693
 Red. masses --      4.9630                 8.0291                 1.3317
 Frc consts  --      0.0860                 0.1455                 0.0327
 IR Inten    --     12.1603                 1.1190                88.1061

                     10                     11                     12
                      A                      A                      A
 Frequencies --    228.1628               246.8057               279.7734
 Red. masses --      3.7635                 8.5498                 5.5513
 Frc consts  --      0.1154                 0.3068                 0.2560
 IR Inten    --      5.2163                 8.7047                11.6757

                     13                     14                     15
                      A                      A                      A
 Frequencies --    305.2261               328.4454               353.7156
 Red. masses --      4.3533                 3.6017                 5.3868
 Frc consts  --      0.2390                 0.2289                 0.3971
 IR Inten    --     10.2500                18.7627                 6.3513

                     16                     17                     18
                      A                      A                      A
 Frequencies --    369.5353               381.9217               472.6778
 Red. masses --      5.8541                 4.7176                 4.8936
 Frc consts  --      0.4710                 0.4054                 0.6442
 IR Inten    --     22.7472                 7.7913                 5.9056

                     19                     20                     21
                      A                      A                      A
 Frequencies --    510.6988               522.9479               542.3429
 Red. masses --      1.1938                 5.4458                 5.0658
 Frc consts  --      0.1834                 0.8775                 0.8779
 IR Inten    --    100.0371                77.2187                 1.8420

                     22                     23                     24
                      A                      A                      A
 Frequencies --    549.1213               589.5125               632.4936
 Red. masses --      5.5198                 6.3296                 4.2226
 Frc consts  --      0.9806                 1.2960                 0.9953
 IR Inten    --      1.9802                33.6894                21.9289

                     25                     26                     27
                      A                      A                      A
 Frequencies --    648.5431               684.5938               715.4961
 Red. masses --      1.9808                 5.9781                 4.5432
 Frc consts  --      0.4909                 1.6507                 1.3703
 IR Inten    --     35.1903                23.2821                42.0635

                     28                     29                     30
                      A                      A                      A
 Frequencies --    756.8497               761.1866               770.0073
 Red. masses --      5.3779                 1.0908                 8.4853
 Frc consts  --      1.8150                 0.3724                 2.9642
 IR Inten    --     19.2045               146.9925                39.5431

                     31                     32                     33
                      A                      A                      A
 Frequencies --    786.0181               838.0123               880.4047
 Red. masses --      3.3922                 5.5126                 3.6531
 Frc consts  --      1.2348                 2.2809                 1.6683
 IR Inten    --      5.5138                10.3786                95.6481

                     34                     35                     36
                      A                      A                      A
 Frequencies --    895.4276               913.8896               941.3720
 Red. masses --      2.6621                 5.6493                 2.4037
 Frc consts  --      1.2576                 2.7799                 1.2550
 IR Inten    --      1.7825                13.6297                38.9785

                     37                     38                     39
                      A                      A                      A
 Frequencies --    956.7577               972.6945              1036.5530
 Red. masses --      1.6097                 2.8515                 2.4587
 Frc consts  --      0.8682                 1.5896                 1.5565
 IR Inten    --      7.5737                70.8654               134.3906

                     40                     41                     42
                      A                      A                      A
 Frequencies --   1088.2476              1100.4688              1117.2487
 Red. masses --      2.1469                 3.1128                 5.6258
 Frc consts  --      1.4980                 2.2210                 4.1375
 IR Inten    --     57.1893                26.2602                31.1050

                     43                     44                     45
                      A                      A                      A
 Frequencies --   1139.0673              1154.9014              1164.2639
 Red. masses --      3.7318                 2.0254                 4.0147
 Frc consts  --      2.8528                 1.5917                 3.2064
 IR Inten    --    121.5566               238.5881               221.3148

                     46                     47                     48
                      A                      A                      A
 Frequencies --   1176.7895              1197.5734              1211.8452
 Red. masses --      1.6626                 1.2394                 1.3352
 Frc consts  --      1.3565                 1.0473                 1.1553
 IR Inten    --     57.6198                 8.0273                29.5804

                     49                     50                     51
                      A                      A                      A
 Frequencies --   1243.2399              1272.2856              1283.1404
 Red. masses --      1.1149                 1.3957                 1.4107
 Frc consts  --      1.0153                 1.3311                 1.3685
 IR Inten    --     16.4934                12.5339                 9.1224

                     52                     53                     54
                      A                      A                      A
 Frequencies --   1294.9170              1308.4285              1328.6295
 Red. masses --      1.3050                 1.4639                 1.7034
 Frc consts  --      1.2893                 1.4766                 1.7716
 IR Inten    --     36.4881                37.2742                64.9183

                     55                     56                     57
                      A                      A                      A
 Frequencies --   1338.1748              1353.6449              1381.3198
 Red. masses --      2.2776                 2.0112                 1.6057
 Frc consts  --      2.4030                 2.1713                 1.8051
 IR Inten    --     34.5137                 0.5716                15.2895

                     58                     59                     60
                      A                      A                      A
 Frequencies --   1387.4930              1403.3491              1410.5956
 Red. masses --      2.3367                 2.0383                 1.6352
 Frc consts  --      2.6504                 2.3651                 1.9171
 IR Inten    --      9.4935                 4.3843                14.8128

                     61                     62                     63
                      A                      A                      A
 Frequencies --   1437.6717              1465.8773              1468.5029
 Red. masses --      1.3676                 1.2000                 1.0717
 Frc consts  --      1.6655                 1.5192                 1.3617
 IR Inten    --     66.9681                20.8215                 6.3029

                     64                     65                     66
                      A                      A                      A
 Frequencies --   1517.3746              1579.3875              1628.8650
 Red. masses --      3.2578                 5.6913                 9.2933
 Frc consts  --      4.4194                 8.3644                14.5275
 IR Inten    --     33.5104               221.4360               251.7889

                     67                     68                     69
                      A                      A                      A
 Frequencies --   1739.7574              2979.9240              3023.8098
 Red. masses --     10.6416                 1.0821                 1.0624
 Frc consts  --     18.9774                 5.6613                 5.7231
 IR Inten    --     14.9707                33.9599                45.8792

                     70                     71                     72
                      A                      A                      A
 Frequencies --   3054.2324              3086.2531              3097.0459
 Red. masses --      1.0860                 1.1015                 1.0883
 Frc consts  --      5.9685                 6.1813                 6.1504
 IR Inten    --     70.6420                39.5926                13.2495

                     73                     74                     75
                      A                      A                      A
 Frequencies --   3155.9863              3206.6889              3545.0144
 Red. masses --      1.0885                 1.0950                 1.0690
 Frc consts  --      6.3880                 6.6339                 7.9150
 IR Inten    --      0.5523                 0.3338               735.3894

                     76                     77                     78
                      A                      A                      A
 Frequencies --   3602.9325              3767.4793              3898.1211
 Red. masses --      1.0799                 1.0650                 1.0672
 Frc consts  --      8.2596                 8.9062                 9.5541
 IR Inten    --    112.0082               145.7582                90.4601

 - Thermochemistry -
 -------------------
 Temperature   298.150 Kelvin.  Pressure   1.00000 Atm.
 Atom     1 has atomic number  6 and mass  12.00000

 Molecular mass:   243.06171 amu.
 Principal axes and moments of inertia in atomic units:
                           1         2         3
     Eigenvalues --  1935.496845697.982116866.92497
           X            0.99990  -0.01382   0.00206
           Y            0.01382   0.99990  -0.00200
           Z           -0.00203   0.00203   1.00000
 This molecule is an asymmetric top.
 Rotational symmetry number  1.
 Warning -- assumption of classical behavior for rotation
           may cause significant error
 Rotational temperatures (Kelvin)      0.04475     0.01520     0.01261
 Rotational constants (GHZ):           0.93244     0.31673     0.26282
 Zero-point vibrational energy     559810.6 (Joules/Mol)
                                  133.79794 (Kcal/Mol)
 Warning -- explicit consideration of  23 degrees of freedom as
           vibrations may cause significant error
 Vibrational temperatures:     53.89    61.65   130.37   139.16   188.82
          (Kelvin)            232.29   246.74   252.36   293.61   328.28
                              355.10   402.53   439.15   472.56   508.92
                              531.68   549.50   680.08   734.78   752.41
                              780.31   790.06   848.18   910.02   933.11
                              984.98  1029.44  1088.94  1095.18  1107.87
                             1130.90  1205.71  1266.71  1288.32  1314.88
                             1354.42  1376.56  1399.49  1491.37  1565.75
                             1583.33  1607.47  1638.86  1661.65  1675.12
                             1693.14  1723.04  1743.57  1788.74  1830.54
                             1846.15  1863.10  1882.54  1911.60  1925.34
                             1947.59  1987.41  1996.29  2019.11  2029.53
                             2068.49  2109.07  2112.85  2183.16  2272.39
                             2343.57  2503.12  4287.45  4350.59  4394.36
                             4440.43  4455.96  4540.76  4613.71  5100.48
                             5183.82  5420.56  5608.53

 Zero-point correction=                           0.213221 (Hartree/Particle)
 Thermal correction to Energy=                    0.228406
 Thermal correction to Enthalpy=                  0.229350
 Thermal correction to Gibbs Free Energy=         0.169828
 Sum of electronic and zero-point Energies=           -909.315570
 Sum of electronic and thermal Energies=              -909.300384
 Sum of electronic and thermal Enthalpies=            -909.299440
 Sum of electronic and thermal Free Energies=         -909.358962

                     E (Thermal)             CV                S
                      KCal/Mol        Cal/Mol-Kelvin    Cal/Mol-Kelvin
 Total                  143.327             57.833            125.275
 Electronic               0.000              0.000              1.377
 Translational            0.889              2.981             42.365
 Rotational               0.889              2.981             32.693
 Vibrational            141.549             51.872             48.839
 Vibration     1          0.594              1.982              5.389
 Vibration     2          0.595              1.980              5.123
 Vibration     3          0.602              1.956              3.647
 Vibration     4          0.603              1.952              3.519
 Vibration     5          0.612              1.922              2.928
 Vibration     6          0.622              1.890              2.533
 Vibration     7          0.626              1.878              2.419
 Vibration     8          0.627              1.873              2.377
 Vibration     9          0.640              1.834              2.096
 Vibration    10          0.651              1.798              1.893
 Vibration    11          0.661              1.768              1.753
 Vibration    12          0.680              1.711              1.535
 Vibration    13          0.696              1.664              1.388
 Vibration    14          0.712              1.619              1.268
 Vibration    15          0.730              1.568              1.150
 Vibration    16          0.742              1.535              1.082
 Vibration    17          0.751              1.509              1.032
 Vibration    18          0.830              1.311              0.730
 Vibration    19          0.866              1.226              0.632
 Vibration    20          0.878              1.199              0.603
 Vibration    21          0.897              1.156              0.560
 Vibration    22          0.904              1.142              0.546
 Vibration    23          0.947              1.054              0.468

 Optimization completed.
    -- Stationary point found.
 Normal termination of Gaussian 16 at Mon Oct 28 03:18:18 2024.
