 Gaussian 16, Revision C.01,
 Gaussian 16:  EM64L-G16RevC.01  3-Jul-2019

 ------------------------------------------------------
 # PBE1PBE/aug-cc-pVDZ opt freq EmpiricalDispersion=GD3
 ------------------------------------------------------

 ----
 blah
 ----
 Symbolic Z-matrix:
 Charge =  0 Multiplicity = 1

 SCF Done:  E(RPBE1PBE) =  -910.212007518     A.U. after   14 cycles
 SCF Done:  E(RPBE1PBE) =  -910.228888682     A.U. after   13 cycles
 SCF Done:  E(RPBE1PBE) =  -910.214551268     A.U. after   15 cycles
 SCF Done:  E(RPBE1PBE) =  -910.224282281     A.U. after   12 cycles
 SCF Done:  E(RPBE1PBE) =  -910.229206210     A.U. after   10 cycles
 SCF Done:  E(RPBE1PBE) =  -910.230257943     A.U. after   13 cycles
 SCF Done:  E(RPBE1PBE) =  -910.230596507     A.U. after   11 cycles
 SCF Done:  E(RPBE1PBE) =  -910.230711084     A.U. after   11 cycles
 SCF Done:  E(RPBE1PBE) =  -910.230734098     A.U. after   11 cycles
 SCF Done:  E(RPBE1PBE) =  -910.230739363     A.U. after   10 cycles
 SCF Done:  E(RPBE1PBE) =  -910.230742536     A.U. after   10 cycles
 SCF Done:  E(RPBE1PBE) =  -910.230743765     A.U. after    9 cycles
 SCF Done:  E(RPBE1PBE) =  -910.230744244     A.U. after    9 cycles
 SCF Done:  E(RPBE1PBE) =  -910.230744591     A.U. after    8 cycles
 SCF Done:  E(RPBE1PBE) =  -910.230744764     A.U. after    8 cycles
 SCF Done:  E(RPBE1PBE) =  -910.230744878     A.U. after    8 cycles
 SCF Done:  E(RPBE1PBE) =  -910.230745014     A.U. after    9 cycles
 SCF Done:  E(RPBE1PBE) =  -910.230745066     A.U. after    7 cycles
 Optimization completed.
    -- Stationary point found.
 Normal termination of Gaussian 16 at Thu Oct 24 11:39:42 2024.

 ----------------------------------------------------------------------
 #N Geom=AllCheck Guess=TCheck SCRF=Check GenChk RPBE1PBE/Aug-CC-pVDZ F
 req
 ----------------------------------------------------------------------

 Structure from the checkpoint file:  "/scr/Gau-24581.chk"
 ----
 blah
 ----
 Charge =  0 Multiplicity = 1

                         Standard orientation:
 ---------------------------------------------------------------------
 Center     Atomic      Atomic             Coordinates (Angstroms)
 Number     Number       Type             X           Y           Z
 ---------------------------------------------------------------------
      1          6           0       -2.751214   -0.525169    0.297398
      2          6           0       -1.336796   -0.786633    0.819557
      3          6           0       -0.526755   -0.737810   -0.489055
      4          8           0       -1.190288   -1.986856    1.525692
      5          1           0       -1.038169    0.038139    1.474939
      6          8           0       -1.150147    0.256450   -1.282601
      7          1           0       -0.622419   -1.730554   -0.968190
      8          6           0        0.926662   -0.430961   -0.329830
      9          6           0       -2.518650    0.426496   -0.879130
     10          1           0       -3.397168   -0.083006    1.067749
     11          8           0       -3.245902   -1.796913   -0.120680
     12          6           0       -2.747052    1.889669   -0.541467
     13          1           0       -3.168037    0.138498   -1.723126
     14          8           0       -2.100938    2.283344    0.641531
     15          1           0       -3.824774    2.058301   -0.394517
     16          1           0       -2.427875    2.495756   -1.407594
     17          1           0       -4.188528   -1.730257   -0.290142
     18          1           0       -1.819887   -2.609133    1.137016
     19          1           0       -1.142272    2.154473    0.530577
     20          6           0        1.872921   -1.329840   -0.689554
     21          7           0        3.211412   -1.106568   -0.527456
     22          6           0        3.730730    0.060169    0.002600
     23          7           0        2.754780    0.968910    0.352819
     24          6           0        1.371561    0.833387    0.247274
     25          1           0        1.605984   -2.291048   -1.126771
     26          1           0        3.895092   -1.798378   -0.798134
     27          1           0        3.088623    1.838106    0.752618
     28          8           0        4.921326    0.255517    0.139676
     29          8           0        0.659404    1.749316    0.639043
 ---------------------------------------------------------------------

 SCF Done:  E(RPBE1PBE) =  -910.230745066     A.U. after    2 cycles

 The electronic state is 1-A.
 Alpha  occ. eigenvalues --  -19.25385 -19.23937 -19.23131 -19.22469 -19.22076
 Alpha  occ. eigenvalues --  -19.20572 -14.48471 -14.46963 -10.40003 -10.37344
 Alpha  occ. eigenvalues --  -10.32878 -10.30101 -10.29749 -10.28881 -10.28789
 Alpha  occ. eigenvalues --  -10.27370 -10.27132  -1.13091  -1.10555  -1.09902
 Alpha  occ. eigenvalues --   -1.07717  -1.05937  -1.03968  -1.02970  -0.97662
 Alpha  occ. eigenvalues --   -0.86199  -0.80632  -0.78463  -0.73176  -0.70841
 Alpha  occ. eigenvalues --   -0.69789  -0.64656  -0.62593  -0.60896  -0.59486
 Alpha  occ. eigenvalues --   -0.57423  -0.55351  -0.54497  -0.53019  -0.51779
 Alpha  occ. eigenvalues --   -0.51027  -0.49536  -0.48498  -0.47428  -0.46594
 Alpha  occ. eigenvalues --   -0.46250  -0.45162  -0.44207  -0.43373  -0.42171
 Alpha  occ. eigenvalues --   -0.40575  -0.39761  -0.39088  -0.38258  -0.35288
 Alpha  occ. eigenvalues --   -0.34055  -0.32946  -0.32081  -0.31546  -0.31093
 Alpha  occ. eigenvalues --   -0.30258  -0.28831  -0.27044  -0.26233
 Alpha virt. eigenvalues --   -0.05940  -0.01808  -0.01332  -0.00955   0.00587
 Alpha virt. eigenvalues --    0.00926   0.01635   0.02453   0.03174   0.03506
 Alpha virt. eigenvalues --    0.03950   0.04653   0.04981   0.05191   0.05947

 Mulliken charges:
               1
     1  C    1.254591
     2  C    0.547062
     3  C    1.162064
     4  O   -0.656819
     5  H   -0.534698
     6  O   -0.889923
     7  H   -0.737261
     8  C    0.978109
     9  C    0.779751
    10  H   -0.345113
    11  O   -0.773446
    12  C    1.024741
    13  H   -0.505248
    14  O   -0.488590
    15  H   -0.289714
    16  H   -0.249315
    17  H    0.134758
    18  H    0.111617
    19  H    0.249801
    20  C    1.233751
    21  N   -0.506724
    22  C    0.698921
    23  N   -0.405987
    24  C    0.491150
    25  H   -0.728257
    26  H   -0.066284
    27  H   -0.065469
    28  O   -0.580627
    29  O   -0.842844
 Sum of Mulliken charges =  -0.00000

 Dipole moment (field-independent basis, Debye):
    X=             -1.6470    Y=             -3.8543    Z=             -2.8680  Tot=              5.0787
 Quadrupole moment (field-independent basis, Debye-Ang):
   XX=            -94.5312   YY=            -98.1655   ZZ=           -103.0960
   XY=             -1.8443   XZ=              0.3822   YZ=              3.1775

  Exact polarizability:     193.566      -8.912     139.856       1.095       8.150     105.702
 Approx polarizability:     247.509     -20.349     208.279      -2.846      20.710     161.307

                      1                      2                      3
                      A                      A                      A
 Frequencies --     47.7994                62.4104                85.4715
 Red. masses --      8.2003                 5.6704                 5.1650
 Frc consts  --      0.0110                 0.0130                 0.0222
 IR Inten    --      0.9795                 0.5856                 3.2227

                      4                      5                      6
                      A                      A                      A
 Frequencies --    107.8217               145.7550               152.7694
 Red. masses --      6.0786                 7.0630                 5.3800
 Frc consts  --      0.0416                 0.0884                 0.0740
 IR Inten    --      6.1443                 1.1919                 6.1020

                      7                      8                      9
                      A                      A                      A
 Frequencies --    160.8973               172.9595               198.5531
 Red. masses --      7.9902                 7.7117                 1.3213
 Frc consts  --      0.1219                 0.1359                 0.0307
 IR Inten    --      6.7070                 1.1397                77.9813

                     10                     11                     12
                      A                      A                      A
 Frequencies --    220.5003               251.2303               281.2453
 Red. masses --      3.4242                 6.9767                 5.1172
 Frc consts  --      0.0981                 0.2594                 0.2385
 IR Inten    --     18.7851                 0.2193                 5.2521

                     13                     14                     15
                      A                      A                      A
 Frequencies --    338.5558               345.4416               358.6725
 Red. masses --      2.9132                 5.6421                 6.1325
 Frc consts  --      0.1967                 0.3967                 0.4648
 IR Inten    --      3.5688                 3.2880                 4.6517

                     16                     17                     18
                      A                      A                      A
 Frequencies --    399.1983               415.1473               453.9856
 Red. masses --      9.6373                 3.2121                 1.7194
 Frc consts  --      0.9049                 0.3262                 0.2088
 IR Inten    --     21.9607                12.4480                44.0505

                     19                     20                     21
                      A                      A                      A
 Frequencies --    461.8934               533.3876               553.7020
 Red. masses --      2.0136                 4.9434                 5.3789
 Frc consts  --      0.2531                 0.8286                 0.9716
 IR Inten    --     35.1577                50.9505                 2.9632

                     22                     23                     24
                      A                      A                      A
 Frequencies --    569.3535               599.2541               606.2791
 Red. masses --      8.5930                 1.1559                 5.3566
 Frc consts  --      1.6412                 0.2446                 1.1601
 IR Inten    --      8.0601                55.4894                 7.3083

                     25                     26                     27
                      A                      A                      A
 Frequencies --    646.4842               704.6725               707.2071
 Red. masses --      5.2608                 1.2296                 1.2531
 Frc consts  --      1.2955                 0.3597                 0.3693
 IR Inten    --      0.1993               167.9398                52.3081

                     28                     29                     30
                      A                      A                      A
 Frequencies --    712.9585               753.1545               770.6258
 Red. masses --      2.6959                 5.7917                 7.9084
 Frc consts  --      0.8074                 1.9356                 2.7671
 IR Inten    --      6.8101                12.9540                40.4451

                     31                     32                     33
                      A                      A                      A
 Frequencies --    776.6135               809.2238               870.5777
 Red. masses --      6.4144                 8.3546                 3.9983
 Frc consts  --      2.2794                 3.2234                 1.7854
 IR Inten    --      3.1290                19.9015                11.8171

                     34                     35                     36
                      A                      A                      A
 Frequencies --    897.1854               912.2777               940.5846
 Red. masses --      3.1832                 2.5318                 1.5442
 Frc consts  --      1.5097                 1.2415                 0.8049
 IR Inten    --     31.4157                19.4148                14.5880

                     37                     38                     39
                      A                      A                      A
 Frequencies --    946.1014               998.0744              1016.3429
 Red. masses --      2.1610                 3.0102                 2.3404
 Frc consts  --      1.1397                 1.7667                 1.4244
 IR Inten    --      2.6100                 9.6479                17.5292

                     40                     41                     42
                      A                      A                      A
 Frequencies --   1075.8213              1080.2318              1113.2566
 Red. masses --      2.8162                 3.0778                 2.5494
 Frc consts  --      1.9204                 2.1160                 1.8616
 IR Inten    --      0.3873                76.6687                63.8021

                     43                     44                     45
                      A                      A                      A
 Frequencies --   1122.3569              1152.7429              1165.6306
 Red. masses --      2.9363                 3.9839                 2.8259
 Frc consts  --      2.1792                 3.1191                 2.2622
 IR Inten    --     79.5936               171.4128                68.4062

                     46                     47                     48
                      A                      A                      A
 Frequencies --   1179.8499              1200.6857              1228.6270
 Red. masses --      2.1510                 1.4007                 1.9662
 Frc consts  --      1.7642                 1.1897                 1.7487
 IR Inten    --     13.3688                61.7694               101.1358

                     49                     50                     51
                      A                      A                      A
 Frequencies --   1237.7115              1240.5833              1274.1712
 Red. masses --      1.1789                 1.1848                 1.8080
 Frc consts  --      1.0641                 1.0744                 1.7294
 IR Inten    --      6.7154                20.4294                 4.4112

                     52                     53                     54
                      A                      A                      A
 Frequencies --   1280.3721              1302.8259              1320.7245
 Red. masses --      1.3356                 1.4615                 1.6348
 Frc consts  --      1.2900                 1.4616                 1.6801
 IR Inten    --      2.0956                11.7849                 9.7791

                     55                     56                     57
                      A                      A                      A
 Frequencies --   1329.1998              1362.1652              1372.5883
 Red. masses --      1.4869                 1.9208                 1.8950
 Frc consts  --      1.5478                 2.0999                 2.1035
 IR Inten    --      6.6340                15.6216                 1.0365

                     58                     59                     60
                      A                      A                      A
 Frequencies --   1382.5666              1407.0417              1409.6598
 Red. masses --      1.4219                 1.4294                 1.7339
 Frc consts  --      1.6014                 1.6673                 2.0301
 IR Inten    --     11.8474                10.9601                 0.6598

                     61                     62                     63
                      A                      A                      A
 Frequencies --   1430.2616              1439.0378              1441.6933
 Red. masses --      1.5421                 1.3971                 1.4162
 Frc consts  --      1.8586                 1.7046                 1.7343
 IR Inten    --      0.9423                48.6576                14.1742

                     64                     65                     66
                      A                      A                      A
 Frequencies --   1450.6701              1470.8342              1530.0899
 Red. masses --      2.5917                 1.0889                 4.0883
 Frc consts  --      3.2134                 1.3879                 5.6393
 IR Inten    --     97.5349                 1.1581               169.0775

                     67                     68                     69
                      A                      A                      A
 Frequencies --   1717.6782              1763.7346              1835.4520
 Red. masses --      6.9439                 8.7098                 8.2417
 Frc consts  --     12.0708                15.9634                16.3589
 IR Inten    --     28.3076               762.8124               900.6785

                     70                     71                     72
                      A                      A                      A
 Frequencies --   2994.6287              3017.3671              3039.8740
 Red. masses --      1.0836                 1.0653                 1.0851
 Frc consts  --      5.7253                 5.7143                 5.9079
 IR Inten    --     38.5484                38.3304                86.9058

                     73                     74                     75
                      A                      A                      A
 Frequencies --   3088.1680              3097.7410              3145.5196
 Red. masses --      1.0986                 1.0889                 1.0873
 Frc consts  --      6.1731                 6.1565                 6.3387
 IR Inten    --     32.3739                30.1964                 3.7987

                     76                     77                     78
                      A                      A                      A
 Frequencies --   3228.1589              3626.7012              3643.5871
 Red. masses --      1.0945                 1.0779                 1.0683
 Frc consts  --      6.7203                 8.3529                 8.3564
 IR Inten    --      1.7583                89.5998               602.8383

                     79                     80                     81
                      A                      A                      A
 Frequencies --   3669.3356              3792.9660              3900.3103
 Red. masses --      1.0792                 1.0651                 1.0671
 Frc consts  --      8.5609                 9.0285                 9.5644
 IR Inten    --    102.2636                74.1333                63.4553

 - Thermochemistry -
 -------------------
 Temperature   298.150 Kelvin.  Pressure   1.00000 Atm.
 Atom     1 has atomic number  6 and mass  12.00000

 Molecular mass:   244.06954 amu.
 Principal axes and moments of inertia in atomic units:
                           1         2         3
     Eigenvalues --  1937.768355979.075806995.86926
           X            0.99997  -0.00738   0.00129
           Y            0.00738   0.99996   0.00402
           Z           -0.00132  -0.00401   0.99999
 This molecule is an asymmetric top.
 Rotational symmetry number  1.
 Warning -- assumption of classical behavior for rotation
           may cause significant error
 Rotational temperatures (Kelvin)      0.04470     0.01449     0.01238
 Rotational constants (GHZ):           0.93135     0.30184     0.25797
 Zero-point vibrational energy     601404.6 (Joules/Mol)
                                  143.73914 (Kcal/Mol)
 Warning -- explicit consideration of  24 degrees of freedom as
           vibrations may cause significant error
 Vibrational temperatures:     68.77    89.79   122.97   155.13   209.71
          (Kelvin)            219.80   231.50   248.85   285.67   317.25
                              361.46   404.65   487.11   497.01   516.05
                              574.36   597.30   653.18   664.56   767.43
                              796.65   819.17   862.19   872.30   930.15
                             1013.87  1017.51  1025.79  1083.62  1108.76
                             1117.37  1164.29  1252.57  1290.85  1312.56
                             1353.29  1361.23  1436.01  1462.29  1547.87
                             1554.21  1601.73  1614.82  1658.54  1677.08
                             1697.54  1727.52  1767.72  1780.79  1784.92
                             1833.25  1842.17  1874.48  1900.23  1912.42
                             1959.85  1974.85  1989.20  2024.42  2028.19
                             2057.83  2070.45  2074.28  2087.19  2116.20
                             2201.46  2471.36  2537.62  2640.81  4308.60
                             4341.32  4373.70  4443.18  4456.96  4525.70
                             4644.60  5218.01  5242.31  5279.36  5457.23
                             5611.68

 Zero-point correction=                           0.229063 (Hartree/Particle)
 Thermal correction to Energy=                    0.244149
 Thermal correction to Enthalpy=                  0.245094
 Thermal correction to Gibbs Free Energy=         0.186887
 Sum of electronic and zero-point Energies=           -910.001682
 Sum of electronic and thermal Energies=              -909.986596
 Sum of electronic and thermal Enthalpies=            -909.985651
 Sum of electronic and thermal Free Energies=         -910.043858

                     E (Thermal)             CV                S
                      KCal/Mol        Cal/Mol-Kelvin    Cal/Mol-Kelvin
 Total                  153.206             58.053            122.506
 Electronic               0.000              0.000              0.000
 Translational            0.889              2.981             42.378
 Rotational               0.889              2.981             32.761
 Vibrational            151.429             52.092             47.368
 Vibration     1          0.595              1.978              4.906
 Vibration     2          0.597              1.972              4.379
 Vibration     3          0.601              1.959              3.761
 Vibration     4          0.606              1.943              3.308
 Vibration     5          0.617              1.907              2.727
 Vibration     6          0.619              1.900              2.637
 Vibration     7          0.622              1.890              2.539
 Vibration     8          0.626              1.876              2.403
 Vibration     9          0.637              1.842              2.146
 Vibration    10          0.647              1.810              1.955
 Vibration    11          0.663              1.761              1.722
 Vibration    12          0.681              1.708              1.526
 Vibration    13          0.719              1.598              1.219
 Vibration    14          0.724              1.585              1.187
 Vibration    15          0.734              1.557              1.128
 Vibration    16          0.765              1.472              0.966
 Vibration    17          0.779              1.437              0.909
 Vibration    18          0.812              1.352              0.784
 Vibration    19          0.820              1.335              0.761
 Vibration    20          0.888              1.176              0.580
 Vibration    21          0.909              1.132              0.537
 Vibration    22          0.925              1.098              0.505
 Vibration    23          0.957              1.033              0.451
 Vibration    24          0.965              1.018              0.439

                           ! Non-Optimized Parameters !
 Normal termination of Gaussian 16 at Thu Oct 24 11:56:04 2024.
