 Gaussian 16, Revision C.01,
 Gaussian 16:  EM64L-G16RevC.01  3-Jul-2019

 ------------------------------------------------------
 # PBE1PBE/aug-cc-pVDZ opt freq EmpiricalDispersion=GD3
 ------------------------------------------------------

 ----
 blah
 ----
 Symbolic Z-matrix:
 Charge = -1 Multiplicity = 1

 SCF Done:  E(RPBE1PBE) =  -909.666521664     A.U. after   16 cycles
 SCF Done:  E(RPBE1PBE) =  -909.641272700     A.U. after   15 cycles
 SCF Done:  E(RPBE1PBE) =  -909.678685122     A.U. after   12 cycles
 SCF Done:  E(RPBE1PBE) =  -909.679648609     A.U. after   13 cycles
 SCF Done:  E(RPBE1PBE) =  -909.680161478     A.U. after   13 cycles
 SCF Done:  E(RPBE1PBE) =  -909.680082311     A.U. after   12 cycles
 SCF Done:  E(RPBE1PBE) =  -909.679991967     A.U. after   12 cycles
 SCF Done:  E(RPBE1PBE) =  -909.679748615     A.U. after   12 cycles
 SCF Done:  E(RPBE1PBE) =  -909.680342773     A.U. after    9 cycles
 SCF Done:  E(RPBE1PBE) =  -909.680623514     A.U. after   12 cycles
 SCF Done:  E(RPBE1PBE) =  -909.680690024     A.U. after   11 cycles
 SCF Done:  E(RPBE1PBE) =  -909.680727408     A.U. after   10 cycles
 SCF Done:  E(RPBE1PBE) =  -909.680767141     A.U. after   11 cycles
 SCF Done:  E(RPBE1PBE) =  -909.680791889     A.U. after   11 cycles
 SCF Done:  E(RPBE1PBE) =  -909.680817600     A.U. after   11 cycles
 SCF Done:  E(RPBE1PBE) =  -909.680835603     A.U. after   11 cycles
 SCF Done:  E(RPBE1PBE) =  -909.680841879     A.U. after   10 cycles
 SCF Done:  E(RPBE1PBE) =  -909.680842935     A.U. after    9 cycles
 SCF Done:  E(RPBE1PBE) =  -909.680843070     A.U. after    8 cycles
 Optimization completed.
    -- Stationary point found.
 Normal termination of Gaussian 16 at Sun Oct 27 01:42:59 2024.

 ----------------------------------------------------------------------
 #N Geom=AllCheck Guess=TCheck SCRF=Check GenChk RPBE1PBE/Aug-CC-pVDZ F
 req
 ----------------------------------------------------------------------

 Structure from the checkpoint file:  "/scr/Gau-5576.chk"
 ----
 blah
 ----
 Charge = -1 Multiplicity = 1

                         Standard orientation:
 ---------------------------------------------------------------------
 Center     Atomic      Atomic             Coordinates (Angstroms)
 Number     Number       Type             X           Y           Z
 ---------------------------------------------------------------------
      1          6           0       -2.736624   -0.451777    0.292396
      2          6           0       -1.340529   -0.769516    0.830160
      3          6           0       -0.491302   -0.778613   -0.455085
      4          8           0       -1.274081   -1.972986    1.559104
      5          1           0       -1.005155    0.038410    1.486650
      6          8           0       -1.127618    0.149388   -1.341145
      7          1           0       -0.572727   -1.796368   -0.886635
      8          6           0        0.953073   -0.450512   -0.292996
      9          6           0       -2.444790    0.457550   -0.898005
     10          1           0       -3.373899    0.037308    1.042871
     11          8           0       -3.309174   -1.704999   -0.106155
     12          6           0       -2.551839    1.942117   -0.568320
     13          1           0       -3.148848    0.235017   -1.725732
     14          8           0       -1.931827    2.296170    0.628778
     15          1           0       -3.622330    2.201000   -0.481558
     16          1           0       -2.143824    2.498273   -1.434469
     17          1           0       -4.039696   -1.524032   -0.702012
     18          1           0       -1.807705   -2.612325    1.071763
     19          1           0       -0.962747    2.061611    0.578939
     20          6           0        1.893660   -1.339110   -0.692355
     21          7           0        3.212229   -1.069101   -0.537387
     22          6           0        3.678776    0.141521    0.033797
     23          7           0        2.759240    1.039464    0.431942
     24          6           0        1.431864    0.815700    0.303557
     25          1           0        1.635406   -2.298352   -1.145995
     26          1           0        3.927804   -1.719984   -0.821304
     27          8           0        4.907767    0.266602    0.115120
     28          8           0        0.604895    1.676167    0.698885
 ---------------------------------------------------------------------

 SCF Done:  E(RPBE1PBE) =  -909.680843071     A.U. after    1 cycles

 The electronic state is 1-A.
 Alpha  occ. eigenvalues --  -19.15103 -19.12341 -19.11939 -19.08111 -19.03670
 Alpha  occ. eigenvalues --  -19.03057 -14.31142 -14.21668 -10.20214 -10.18792
 Alpha  occ. eigenvalues --  -10.18146 -10.18043 -10.17343 -10.17088 -10.16640
 Alpha  occ. eigenvalues --  -10.16525 -10.10762  -0.99228  -0.96167  -0.95008
 Alpha  occ. eigenvalues --   -0.92932  -0.91817  -0.89774  -0.84432  -0.75597
 Alpha  occ. eigenvalues --   -0.70681  -0.69278  -0.64924  -0.58018  -0.53194
 Alpha  occ. eigenvalues --   -0.52108  -0.51261  -0.49878  -0.46009  -0.45080
 Alpha  occ. eigenvalues --   -0.43041  -0.41833  -0.40245  -0.37102  -0.36282
 Alpha  occ. eigenvalues --   -0.35910  -0.35140  -0.34171  -0.32717  -0.31997
 Alpha  occ. eigenvalues --   -0.31000  -0.29771  -0.29111  -0.28371  -0.27568
 Alpha  occ. eigenvalues --   -0.26595  -0.25144  -0.23604  -0.22358  -0.21908
 Alpha  occ. eigenvalues --   -0.20809  -0.18681  -0.17218  -0.15220  -0.14113
 Alpha  occ. eigenvalues --   -0.12359  -0.11294  -0.11082  -0.10179
 Alpha virt. eigenvalues --    0.06395   0.08205   0.08906   0.09674   0.10573
 Alpha virt. eigenvalues --    0.11225   0.11684   0.12057   0.12533   0.13446
 Alpha virt. eigenvalues --    0.13981   0.14669   0.15279   0.15608   0.15711

 Mulliken charges:
               1
     1  C    1.396062
     2  C    0.515721
     3  C    1.151938
     4  O   -0.639175
     5  H   -0.569907
     6  O   -0.893735
     7  H   -0.734580
     8  C    1.100082
     9  C    0.725938
    10  H   -0.361527
    11  O   -0.770202
    12  C    0.982479
    13  H   -0.532850
    14  O   -0.552609
    15  H   -0.311039
    16  H   -0.262253
    17  H    0.103561
    18  H    0.077633
    19  H    0.363770
    20  C    1.032183
    21  N   -0.544440
    22  C    0.681734
    23  N   -0.655083
    24  C    0.278703
    25  H   -0.735882
    26  H   -0.121643
    27  O   -0.740362
    28  O   -0.984519
 Sum of Mulliken charges =  -1.00000

 Dipole moment (field-independent basis, Debye):
    X=            -10.0268    Y=             -6.8584    Z=             -4.6168  Tot=             12.9957
 Quadrupole moment (field-independent basis, Debye-Ang):
   XX=           -149.7172   YY=           -115.5816   ZZ=           -108.9944
   XY=            -12.9245   XZ=             -1.1038   YZ=             -0.2358

  Exact polarizability:     212.192     -10.040     149.040       1.535       9.048     114.988
 Approx polarizability:     273.178     -22.096     217.661      -3.026      21.179     174.927

                      1                      2                      3
                      A                      A                      A
 Frequencies --     49.5171                61.6412                89.5817
 Red. masses --      8.6906                 5.7318                 3.7188
 Frc consts  --      0.0126                 0.0128                 0.0176
 IR Inten    --      0.7215                 4.3019                 8.9219

                      4                      5                      6
                      A                      A                      A
 Frequencies --    104.0238               113.7572               144.9323
 Red. masses --      1.6290                 2.9242                 6.1416
 Frc consts  --      0.0104                 0.0223                 0.0760
 IR Inten    --    103.1204                16.7887                14.2732

                      7                      8                      9
                      A                      A                      A
 Frequencies --    164.8371               183.3521               199.1076
 Red. masses --     10.4716                 7.7329                11.9301
 Frc consts  --      0.1676                 0.1532                 0.2787
 IR Inten    --      1.2207                 9.1284                 0.2988

                     10                     11                     12
                      A                      A                      A
 Frequencies --    225.3154               258.5373               270.3339
 Red. masses --      4.2942                 7.8734                 3.9979
 Frc consts  --      0.1284                 0.3101                 0.1721
 IR Inten    --      7.7795                 7.4777                 6.7288

                     13                     14                     15
                      A                      A                      A
 Frequencies --    336.6258               345.8951               354.2253
 Red. masses --      2.8915                 4.8375                 5.1139
 Frc consts  --      0.1931                 0.3410                 0.3781
 IR Inten    --      2.2155                 2.6177                 7.4014

                     16                     17                     18
                      A                      A                      A
 Frequencies --    397.5376               423.5569               425.8899
 Red. masses --      2.1571                 1.7560                 6.4499
 Frc consts  --      0.2009                 0.1856                 0.6893
 IR Inten    --     22.8612                53.5419                12.0357

                     19                     20                     21
                      A                      A                      A
 Frequencies --    462.5639               540.0271               571.6048
 Red. masses --      4.5597                 4.5190                 6.1149
 Frc consts  --      0.5748                 0.7765                 1.1771
 IR Inten    --      6.2839                21.8421                34.4377

                     22                     23                     24
                      A                      A                      A
 Frequencies --    578.6291               584.7748               602.6517
 Red. masses --      8.7354                 1.2321                 6.1795
 Frc consts  --      1.7232                 0.2482                 1.3223
 IR Inten    --      6.2557                63.1152                13.5399

                     25                     26                     27
                      A                      A                      A
 Frequencies --    652.6139               711.8338               762.7628
 Red. masses --      5.4529                 5.4312                 6.8337
 Frc consts  --      1.3683                 1.6215                 2.3425
 IR Inten    --      2.5341                22.4146                13.2918

                     28                     29                     30
                      A                      A                      A
 Frequencies --    774.4450               790.7837               819.7943
 Red. masses --      6.2184                12.3380                 8.7893
 Frc consts  --      2.1974                 4.5458                 3.4803
 IR Inten    --     11.9693                11.2304                 9.9052

                     31                     32                     33
                      A                      A                      A
 Frequencies --    864.3753               894.5620               907.8233
 Red. masses --      4.7111                 2.6329                 2.2018
 Frc consts  --      2.0738                 1.2414                 1.0691
 IR Inten    --     10.6380                31.9403                10.6162

                     34                     35                     36
                      A                      A                      A
 Frequencies --    925.2444               930.5046               951.6624
 Red. masses --      2.0102                 1.1154                 2.2023
 Frc consts  --      1.0139                 0.5690                 1.1752
 IR Inten    --     14.5491               108.2104                 6.1238

                     37                     38                     39
                      A                      A                      A
 Frequencies --    975.3058              1014.6978              1046.3460
 Red. masses --      4.6827                 2.4606                 2.8216
 Frc consts  --      2.6244                 1.4927                 1.8201
 IR Inten    --     13.7247                15.2109               110.0665

                     40                     41                     42
                      A                      A                      A
 Frequencies --   1070.5078              1106.2325              1134.8682
 Red. masses --      3.5666                 2.0665                 2.5741
 Frc consts  --      2.4081                 1.4900                 1.9533
 IR Inten    --     21.4683                65.1690                74.9614

                     43                     44                     45
                      A                      A                      A
 Frequencies --   1143.3322              1170.8046              1176.1368
 Red. masses --      4.1139                 1.5572                 2.6952
 Frc consts  --      3.1684                 1.2577                 2.1966
 IR Inten    --    158.0144                42.8098               105.3849

                     46                     47                     48
                      A                      A                      A
 Frequencies --   1193.2114              1228.1299              1251.8358
 Red. masses --      1.5149                 1.3155                 1.1113
 Frc consts  --      1.2708                 1.1690                 1.0261
 IR Inten    --     20.3258                13.0982                10.7183

                     49                     50                     51
                      A                      A                      A
 Frequencies --   1258.6401              1287.8317              1299.6618
 Red. masses --      2.2621                 1.2578                 1.4445
 Frc consts  --      2.1114                 1.2290                 1.4376
 IR Inten    --     18.9000                 5.8109                 9.8406

                     52                     53                     54
                      A                      A                      A
 Frequencies --   1306.6526              1324.7625              1329.1185
 Red. masses --      1.4231                 1.4479                 1.9560
 Frc consts  --      1.4316                 1.4972                 2.0358
 IR Inten    --     22.9749                 4.0371               109.9092

                     55                     56                     57
                      A                      A                      A
 Frequencies --   1344.6633              1363.4136              1379.5685
 Red. masses --      4.8353                 1.6927                 1.6169
 Frc consts  --      5.1511                 1.8539                 1.8131
 IR Inten    --     39.4726                13.9834                28.0785

                     58                     59                     60
                      A                      A                      A
 Frequencies --   1382.4137              1394.2168              1419.2852
 Red. masses --      2.9658                 1.4808                 1.8365
 Frc consts  --      3.3394                 1.6959                 2.1796
 IR Inten    --     61.8059                 6.3396                35.6310

                     61                     62                     63
                      A                      A                      A
 Frequencies --   1444.3661              1462.9106              1506.2339
 Red. masses --      1.3383                 1.0950                 1.5567
 Frc consts  --      1.6450                 1.3807                 2.0809
 IR Inten    --     59.2210                 6.4739                12.5604

                     64                     65                     66
                      A                      A                      A
 Frequencies --   1509.9829              1596.7873              1721.0975
 Red. masses --      2.2608                 8.7201                 6.9342
 Frc consts  --      3.0371                13.0998                12.1020
 IR Inten    --     99.8127              1062.9601                97.8201

                     67                     68                     69
                      A                      A                      A
 Frequencies --   1741.5791              2952.4587              2964.3560
 Red. masses --      9.1226                 1.0792                 1.0827
 Frc consts  --     16.3025                 5.5427                 5.6055
 IR Inten    --   1125.7661                40.4608                92.2189

                     70                     71                     72
                      A                      A                      A
 Frequencies --   2981.6618              3032.8756              3080.2256
 Red. masses --      1.0660                 1.1016                 1.0869
 Frc consts  --      5.5839                 5.9699                 6.0758
 IR Inten    --    286.1744               165.5700                32.6926

                     73                     74                     75
                      A                      A                      A
 Frequencies --   3157.1041              3163.8508              3181.6962
 Red. masses --      1.0824                 1.0819                 1.0928
 Frc consts  --      6.3563                 6.3804                 6.5181
 IR Inten    --    704.0890               747.9260                45.1208

                     76                     77                     78
                      A                      A                      A
 Frequencies --   3672.5789              3821.9766              3894.7443
 Red. masses --      1.0785                 1.0651                 1.0666
 Frc consts  --      8.5709                 9.1668                 9.5326
 IR Inten    --     42.0835                39.1503                23.1185

 - Thermochemistry -
 -------------------
 Temperature   298.150 Kelvin.  Pressure   1.00000 Atm.
 Atom     1 has atomic number  6 and mass  12.00000

 Molecular mass:   243.06171 amu.
 Principal axes and moments of inertia in atomic units:
                           1         2         3
     Eigenvalues --  1924.670035866.525886823.76929
           X            0.99991  -0.01314   0.00084
           Y            0.01314   0.99991   0.00062
           Z           -0.00085  -0.00061   1.00000
 This molecule is an asymmetric top.
 Rotational symmetry number  1.
 Warning -- assumption of classical behavior for rotation
           may cause significant error
 Rotational temperatures (Kelvin)      0.04500     0.01476     0.01269
 Rotational constants (GHZ):           0.93769     0.30763     0.26448
 Zero-point vibrational energy     562026.2 (Joules/Mol)
                                  134.32749 (Kcal/Mol)
 Warning -- explicit consideration of  24 degrees of freedom as
           vibrations may cause significant error
 Vibrational temperatures:     71.24    88.69   128.89   149.67   163.67
          (Kelvin)            208.53   237.16   263.80   286.47   324.18
                              371.98   388.95   484.33   497.67   509.65
                              571.97   609.40   612.76   665.53   776.98
                              822.41   832.52   841.36   867.08   938.97
                             1024.17  1097.45  1114.25  1137.76  1179.50
                             1243.64  1287.08  1306.16  1331.22  1338.79
                             1369.23  1403.25  1459.92  1505.46  1540.22
                             1591.62  1632.82  1645.00  1684.53  1692.20
                             1716.77  1767.01  1801.11  1810.90  1852.90
                             1869.92  1879.98  1906.04  1912.31  1934.67
                             1961.65  1984.89  1988.98  2005.97  2042.03
                             2078.12  2104.80  2167.13  2172.53  2297.42
                             2476.28  2505.74  4247.93  4265.05  4289.95
                             4363.63  4431.76  4542.37  4552.08  4577.75
                             5284.02  5498.97  5603.67

 Zero-point correction=                           0.214064 (Hartree/Particle)
 Thermal correction to Energy=                    0.229027
 Thermal correction to Enthalpy=                  0.229971
 Thermal correction to Gibbs Free Energy=         0.171847
 Sum of electronic and zero-point Energies=           -909.466779
 Sum of electronic and thermal Energies=              -909.451816
 Sum of electronic and thermal Enthalpies=            -909.450872
 Sum of electronic and thermal Free Energies=         -909.508996

                     E (Thermal)             CV                S
                      KCal/Mol        Cal/Mol-Kelvin    Cal/Mol-Kelvin
 Total                  143.716             56.871            122.332
 Electronic               0.000              0.000              0.000
 Translational            0.889              2.981             42.365
 Rotational               0.889              2.981             32.710
 Vibrational            141.939             50.910             47.257
 Vibration     1          0.595              1.978              4.837
 Vibration     2          0.597              1.973              4.404
 Vibration     3          0.602              1.957              3.669
 Vibration     4          0.605              1.946              3.377
 Vibration     5          0.607              1.938              3.204
 Vibration     6          0.616              1.908              2.738
 Vibration     7          0.623              1.886              2.494
 Vibration     8          0.631              1.862              2.294
 Vibration     9          0.637              1.841              2.141
 Vibration    10          0.650              1.802              1.916
 Vibration    11          0.667              1.748              1.672
 Vibration    12          0.674              1.728              1.594
 Vibration    13          0.717              1.602              1.228
 Vibration    14          0.724              1.584              1.185
 Vibration    15          0.730              1.567              1.147
 Vibration    16          0.764              1.475              0.972
 Vibration    17          0.786              1.419              0.880
 Vibration    18          0.788              1.414              0.872
 Vibration    19          0.820              1.333              0.759
 Vibration    20          0.895              1.162              0.565
 Vibration    21          0.928              1.093              0.501
 Vibration    22          0.935              1.078              0.488
 Vibration    23          0.942              1.064              0.477
 Vibration    24          0.961              1.026              0.445

                           ! Non-Optimized Parameters !
 Normal termination of Gaussian 16 at Sun Oct 27 01:58:15 2024.
