 Gaussian 16, Revision C.01,
 Gaussian 16:  EM64L-G16RevC.01  3-Jul-2019

 ------------------------------------------------------
 # PBE1PBE/aug-cc-pVDZ opt freq EmpiricalDispersion=GD3
 ------------------------------------------------------

 ----
 blah
 ----
 Symbolic Z-matrix:
 Charge =  0 Multiplicity = 1

 SCF Done:  E(RPBE1PBE) =  -910.209795120     A.U. after   14 cycles
 SCF Done:  E(RPBE1PBE) =  -910.210479304     A.U. after   14 cycles
 SCF Done:  E(RPBE1PBE) =  -910.218411866     A.U. after   14 cycles
 SCF Done:  E(RPBE1PBE) =  -910.219647288     A.U. after   12 cycles
 SCF Done:  E(RPBE1PBE) =  -910.219568837     A.U. after   14 cycles
 SCF Done:  E(RPBE1PBE) =  -910.220425091     A.U. after   11 cycles
 SCF Done:  E(RPBE1PBE) =  -910.220566513     A.U. after   12 cycles
 SCF Done:  E(RPBE1PBE) =  -910.220648445     A.U. after   11 cycles
 SCF Done:  E(RPBE1PBE) =  -910.220670119     A.U. after   10 cycles
 SCF Done:  E(RPBE1PBE) =  -910.220677973     A.U. after   10 cycles
 SCF Done:  E(RPBE1PBE) =  -910.220680865     A.U. after    9 cycles
 SCF Done:  E(RPBE1PBE) =  -910.220683530     A.U. after    9 cycles
 SCF Done:  E(RPBE1PBE) =  -910.220685070     A.U. after    9 cycles
 SCF Done:  E(RPBE1PBE) =  -910.220685669     A.U. after    8 cycles
 SCF Done:  E(RPBE1PBE) =  -910.220685958     A.U. after    8 cycles
 Optimization completed.
    -- Stationary point found.
 Normal termination of Gaussian 16 at Thu Oct 17 10:47:31 2024.

 ----------------------------------------------------------------------
 #N Geom=AllCheck Guess=TCheck SCRF=Check GenChk RPBE1PBE/Aug-CC-pVDZ F
 req
 ----------------------------------------------------------------------

 Structure from the checkpoint file:  "/scr/Gau-32254.chk"
 ----
 blah
 ----
 Charge =  0 Multiplicity = 1

                         Standard orientation:
 ---------------------------------------------------------------------
 Center     Atomic      Atomic             Coordinates (Angstroms)
 Number     Number       Type             X           Y           Z
 ---------------------------------------------------------------------
      1          6           0       -2.705818   -0.511856    0.276891
      2          6           0       -1.307810   -0.754317    0.849418
      3          6           0       -0.469963   -0.720468   -0.437941
      4          8           0       -1.165261   -1.946719    1.566154
      5          1           0       -1.030871    0.079994    1.499663
      6          8           0       -1.061340    0.229254   -1.280768
      7          1           0       -0.504847   -1.726583   -0.888453
      8          7           0        0.946832   -0.426054   -0.275301
      9          6           0       -2.441868    0.419378   -0.911840
     10          1           0       -3.377790   -0.057393    1.016400
     11          8           0       -3.176053   -1.793600   -0.134904
     12          6           0       -2.682871    1.888053   -0.611152
     13          1           0       -3.063228    0.112547   -1.768543
     14          8           0       -2.116223    2.300411    0.604847
     15          1           0       -3.767852    2.057093   -0.536986
     16          1           0       -2.309812    2.479773   -1.465350
     17          1           0       -4.119854   -1.748509   -0.305773
     18          1           0       -1.789723   -2.576492    1.180530
     19          1           0       -1.153433    2.170077    0.556456
     20          6           0        1.875969   -1.338535   -0.720601
     21          6           0        3.209254   -1.162806   -0.621490
     22          6           0        3.728499    0.052559   -0.026623
     23          7           0        2.715002    0.929931    0.385295
     24          6           0        1.355664    0.771335    0.298048
     25          1           0        1.449052   -2.235865   -1.164747
     26          1           0        3.909402   -1.909802   -0.981881
     27          1           0        3.016904    1.801353    0.805186
     28          8           0        4.898272    0.350291    0.127262
     29          8           0        0.588465    1.631190    0.706819
 ---------------------------------------------------------------------

 SCF Done:  E(RPBE1PBE) =  -910.220685958     A.U. after    1 cycles

 The electronic state is 1-A.
 Alpha  occ. eigenvalues --  -19.26572 -19.25828 -19.24300 -19.22838 -19.21558
 Alpha  occ. eigenvalues --  -19.21059 -14.48931 -14.46541 -10.40475 -10.36153
 Alpha  occ. eigenvalues --  -10.34872 -10.32469 -10.31127 -10.30281 -10.30249
 Alpha  occ. eigenvalues --  -10.28448 -10.26221  -1.14030  -1.11891  -1.09554
 Alpha  occ. eigenvalues --   -1.08983  -1.07204  -1.05251  -1.03054  -0.97651
 Alpha  occ. eigenvalues --   -0.84567  -0.82200  -0.80172  -0.73971  -0.71953
 Alpha  occ. eigenvalues --   -0.68505  -0.65638  -0.63371  -0.61611  -0.59272
 Alpha  occ. eigenvalues --   -0.58313  -0.55938  -0.54513  -0.53892  -0.51925
 Alpha  occ. eigenvalues --   -0.50762  -0.49912  -0.48990  -0.48608  -0.47573
 Alpha  occ. eigenvalues --   -0.46038  -0.44628  -0.44606  -0.44336  -0.42880
 Alpha  occ. eigenvalues --   -0.42395  -0.40871  -0.40034  -0.39095  -0.36588
 Alpha  occ. eigenvalues --   -0.35437  -0.33784  -0.32853  -0.32193  -0.31497
 Alpha  occ. eigenvalues --   -0.30117  -0.29194  -0.27956  -0.26992
 Alpha virt. eigenvalues --   -0.05379  -0.02185  -0.01226  -0.00581   0.00280
 Alpha virt. eigenvalues --    0.00642   0.01910   0.02271   0.02971   0.03446
 Alpha virt. eigenvalues --    0.03668   0.04612   0.04869   0.05056   0.06016

 Mulliken charges:
               1
     1  C    1.149486
     2  C    1.006230
     3  C    1.040845
     4  O   -0.673564
     5  H   -0.575387
     6  O   -0.915123
     7  H   -0.544526
     8  N    0.070045
     9  C    0.722329
    10  H   -0.339265
    11  O   -0.778057
    12  C    1.031134
    13  H   -0.465277
    14  O   -0.492779
    15  H   -0.286368
    16  H   -0.251469
    17  H    0.131898
    18  H    0.118120
    19  H    0.239589
    20  C    0.540396
    21  C    1.322866
    22  C    0.375226
    23  N   -0.254378
    24  C    0.617365
    25  H   -0.783100
    26  H   -0.564725
    27  H   -0.087382
    28  O   -0.659072
    29  O   -0.695054
 Sum of Mulliken charges =  -0.00000

 Dipole moment (field-independent basis, Debye):
    X=             -4.6335    Y=             -3.0579    Z=             -2.6146  Tot=              6.1365
 Quadrupole moment (field-independent basis, Debye-Ang):
   XX=           -102.9674   YY=            -99.1592   ZZ=           -102.6658
   XY=              2.5227   XZ=              2.7814   YZ=              2.1919

  Exact polarizability:     194.869      -3.745     136.091       2.574       7.518     106.314
 Approx polarizability:     256.008      -2.765     194.795       3.474      17.059     160.149

                      1                      2                      3
                      A                      A                      A
 Frequencies --     44.3224                61.7174                80.5309
 Red. masses --      8.6125                 5.0900                 5.1056
 Frc consts  --      0.0100                 0.0114                 0.0195
 IR Inten    --      0.2594                 0.4408                 2.5395

                      4                      5                      6
                      A                      A                      A
 Frequencies --    107.4107               152.4443               155.9003
 Red. masses --      5.4757                 5.1043                 7.8662
 Frc consts  --      0.0372                 0.0699                 0.1126
 IR Inten    --      4.9015                 7.4144                 3.3817

                      7                      8                      9
                      A                      A                      A
 Frequencies --    167.4168               179.8456               210.5049
 Red. masses --      7.2836                 7.0826                 1.4314
 Frc consts  --      0.1203                 0.1350                 0.0374
 IR Inten    --      5.2677                 0.6640                68.5865

                     10                     11                     12
                      A                      A                      A
 Frequencies --    224.8921               249.1974               277.6644
 Red. masses --      3.0444                 6.8247                 5.3902
 Frc consts  --      0.0907                 0.2497                 0.2448
 IR Inten    --     26.8538                 0.6059                 2.7602

                     13                     14                     15
                      A                      A                      A
 Frequencies --    325.9397               348.3330               361.1614
 Red. masses --      3.8693                 4.2160                 5.7650
 Frc consts  --      0.2422                 0.3014                 0.4430
 IR Inten    --      4.0972                 8.4139                 2.4293

                     16                     17                     18
                      A                      A                      A
 Frequencies --    401.8868               411.5178               448.8736
 Red. masses --      7.8887                 3.5357                 3.9114
 Frc consts  --      0.7507                 0.3528                 0.4643
 IR Inten    --     18.0519                 6.2301                 4.3795

                     19                     20                     21
                      A                      A                      A
 Frequencies --    467.1366               539.5831               553.9077
 Red. masses --      1.1568                 4.6744                 5.9105
 Frc consts  --      0.1487                 0.8018                 1.0684
 IR Inten    --     83.8426                44.0191                 8.7019

                     22                     23                     24
                      A                      A                      A
 Frequencies --    576.7877               595.9256               652.9805
 Red. masses --      6.8386                 6.4267                 5.6367
 Frc consts  --      1.3404                 1.3447                 1.4160
 IR Inten    --     11.4622                 3.0323                 3.2754

                     25                     26                     27
                      A                      A                      A
 Frequencies --    684.7012               703.0968               712.7966
 Red. masses --      1.0696                 1.2609                 4.2703
 Frc consts  --      0.2955                 0.3673                 1.2783
 IR Inten    --    158.9431                53.6045                16.7528

                     28                     29                     30
                      A                      A                      A
 Frequencies --    725.3139               753.4895               781.3121
 Red. masses --      1.9902                 5.3560                 7.8287
 Frc consts  --      0.6169                 1.7916                 2.8157
 IR Inten    --      0.6310                12.5059                18.4783

                     31                     32                     33
                      A                      A                      A
 Frequencies --    786.0465               827.1984               879.5281
 Red. masses --      7.2666                 2.4052                 3.6730
 Frc consts  --      2.6453                 0.9696                 1.6740
 IR Inten    --     32.5658                54.7685                13.8066

                     34                     35                     36
                      A                      A                      A
 Frequencies --    892.2414               922.3750               949.0633
 Red. masses --      3.2297                 2.8951                 2.2517
 Frc consts  --      1.5149                 1.4512                 1.1950
 IR Inten    --     38.6449                16.8764                 7.0030

                     37                     38                     39
                      A                      A                      A
 Frequencies --    971.1081               993.3058              1016.4205
 Red. masses --      1.3009                 2.8511                 2.2852
 Frc consts  --      0.7228                 1.6574                 1.3910
 IR Inten    --      0.6517                 0.8732                33.7758

                     40                     41                     42
                      A                      A                      A
 Frequencies --   1076.4746              1087.9949              1116.9475
 Red. masses --      2.5514                 2.6100                 2.1624
 Frc consts  --      1.7420                 1.8203                 1.5895
 IR Inten    --      3.9752                60.9616                86.8330

                     43                     44                     45
                      A                      A                      A
 Frequencies --   1120.0225              1144.3575              1158.8646
 Red. masses --      2.7803                 2.0220                 4.1853
 Frc consts  --      2.0550                 1.5601                 3.3116
 IR Inten    --     47.7476                16.9294               189.9562

                     46                     47                     48
                      A                      A                      A
 Frequencies --   1167.4318              1202.8081              1233.8308
 Red. masses --      2.6714                 1.3843                 3.6378
 Frc consts  --      2.1451                 1.1800                 3.2629
 IR Inten    --     69.2399                80.3881                24.8030

                     49                     50                     51
                      A                      A                      A
 Frequencies --   1241.8931              1247.7648              1259.0790
 Red. masses --      1.1223                 1.6263                 1.7727
 Frc consts  --      1.0198                 1.4918                 1.6558
 IR Inten    --      9.3772                47.4866                54.3697

                     52                     53                     54
                      A                      A                      A
 Frequencies --   1281.0010              1297.4722              1309.9163
 Red. masses --      1.3028                 1.4616                 1.4734
 Frc consts  --      1.2596                 1.4497                 1.4895
 IR Inten    --      9.0741                64.7939                 6.9982

                     55                     56                     57
                      A                      A                      A
 Frequencies --   1329.7353              1345.9804              1370.8983
 Red. masses --      1.6755                 1.5726                 1.5448
 Frc consts  --      1.7455                 1.6786                 1.7106
 IR Inten    --      6.2666                19.4928                 8.2851

                     58                     59                     60
                      A                      A                      A
 Frequencies --   1384.2418              1406.9189              1415.0403
 Red. masses --      1.4029                 1.5248                 2.3684
 Frc consts  --      1.5838                 1.7782                 2.7941
 IR Inten    --     19.8961                22.4330                18.6121

                     61                     62                     63
                      A                      A                      A
 Frequencies --   1418.4906              1442.2177              1447.5217
 Red. masses --      2.2895                 1.4931                 1.2651
 Frc consts  --      2.7143                 1.8298                 1.5618
 IR Inten    --     96.9407                33.6588                49.3690

                     64                     65                     66
                      A                      A                      A
 Frequencies --   1451.7406              1469.9178              1493.0031
 Red. masses --      1.5166                 1.0872                 3.9305
 Frc consts  --      1.8832                 1.3840                 5.1620
 IR Inten    --     11.3466                 1.7294               152.3021

                     67                     68                     69
                      A                      A                      A
 Frequencies --   1701.8904              1785.7153              1805.9196
 Red. masses --      6.9184                 8.4218                10.1548
 Frc consts  --     11.8064                15.8226                19.5128
 IR Inten    --     77.9915               996.0579               602.0789

                     70                     71                     72
                      A                      A                      A
 Frequencies --   3021.7585              3035.4819              3054.6869
 Red. masses --      1.0644                 1.0844                 1.0866
 Frc consts  --      5.7261                 5.8869                 5.9740
 IR Inten    --     42.3979                33.0514                59.4407

                     73                     74                     75
                      A                      A                      A
 Frequencies --   3091.5243              3105.6454              3163.9378
 Red. masses --      1.0994                 1.0886                 1.0875
 Frc consts  --      6.1908                 6.1864                 6.4141
 IR Inten    --     36.4930                19.8651                 1.1614

                     76                     77                     78
                      A                      A                      A
 Frequencies --   3235.0657              3275.0383              3625.9419
 Red. masses --      1.0918                 1.0972                 1.0778
 Frc consts  --      6.7324                 6.9340                 8.3487
 IR Inten    --      1.7072                 1.8668                82.6301

                     79                     80                     81
                      A                      A                      A
 Frequencies --   3660.5912              3788.6083              3899.2721
 Red. masses --      1.0680                 1.0652                 1.0672
 Frc consts  --      8.4315                 9.0081                 9.5599
 IR Inten    --    556.6527                78.9813                70.5603

 - Thermochemistry -
 -------------------
 Temperature   298.150 Kelvin.  Pressure   1.00000 Atm.
 Atom     1 has atomic number  6 and mass  12.00000

 Molecular mass:   244.06954 amu.
 Principal axes and moments of inertia in atomic units:
                           1         2         3
     Eigenvalues --  1922.679465810.009786762.99505
           X            0.99997  -0.00794   0.00129
           Y            0.00793   0.99996   0.00478
           Z           -0.00133  -0.00477   0.99999
 This molecule is an asymmetric top.
 Rotational symmetry number  1.
 Warning -- assumption of classical behavior for rotation
           may cause significant error
 Rotational temperatures (Kelvin)      0.04505     0.01491     0.01281
 Rotational constants (GHZ):           0.93866     0.31063     0.26686
 Zero-point vibrational energy     600325.1 (Joules/Mol)
                                  143.48115 (Kcal/Mol)
 Warning -- explicit consideration of  23 degrees of freedom as
           vibrations may cause significant error
 Vibrational temperatures:     63.77    88.80   115.87   154.54   219.33
          (Kelvin)            224.31   240.88   258.76   302.87   323.57
                              358.54   399.50   468.95   501.17   519.63
                              578.23   592.08   645.83   672.11   776.34
                              796.95   829.87   857.40   939.49   985.13
                             1011.60  1025.56  1043.56  1084.10  1124.13
                             1130.95  1190.15  1265.44  1283.74  1327.09
                             1365.49  1397.21  1429.15  1462.40  1548.81
                             1565.38  1607.04  1611.46  1646.48  1667.35
                             1679.67  1730.57  1775.21  1786.81  1795.26
                             1811.53  1843.07  1866.77  1884.68  1913.19
                             1936.57  1972.42  1991.62  2024.24  2035.93
                             2040.89  2075.03  2082.66  2088.73  2114.88
                             2148.10  2448.64  2569.25  2598.32  4347.64
                             4367.38  4395.01  4448.01  4468.33  4552.20
                             4654.54  4712.05  5216.92  5266.77  5450.96
                             5610.18

 Zero-point correction=                           0.228652 (Hartree/Particle)
 Thermal correction to Energy=                    0.243640
 Thermal correction to Enthalpy=                  0.244584
 Thermal correction to Gibbs Free Energy=         0.186531
 Sum of electronic and zero-point Energies=           -909.992034
 Sum of electronic and thermal Energies=              -909.977046
 Sum of electronic and thermal Enthalpies=            -909.976102
 Sum of electronic and thermal Free Energies=         -910.034155

                     E (Thermal)             CV                S
                      KCal/Mol        Cal/Mol-Kelvin    Cal/Mol-Kelvin
 Total                  152.887             57.721            122.184
 Electronic               0.000              0.000              0.000
 Translational            0.889              2.981             42.378
 Rotational               0.889              2.981             32.691
 Vibrational            151.109             51.760             47.115
 Vibration     1          0.595              1.980              5.056
 Vibration     2          0.597              1.973              4.402
 Vibration     3          0.600              1.962              3.878
 Vibration     4          0.606              1.943              3.315
 Vibration     5          0.619              1.900              2.641
 Vibration     6          0.620              1.896              2.599
 Vibration     7          0.624              1.883              2.464
 Vibration     8          0.629              1.867              2.330
 Vibration     9          0.643              1.825              2.039
 Vibration    10          0.650              1.803              1.919
 Vibration    11          0.662              1.764              1.736
 Vibration    12          0.679              1.715              1.548
 Vibration    13          0.710              1.624              1.280
 Vibration    14          0.726              1.579              1.174
 Vibration    15          0.735              1.552              1.117
 Vibration    16          0.768              1.466              0.956
 Vibration    17          0.775              1.445              0.921
 Vibration    18          0.808              1.363              0.799
 Vibration    19          0.824              1.323              0.746
 Vibration    20          0.895              1.163              0.566
 Vibration    21          0.909              1.131              0.536
 Vibration    22          0.933              1.081              0.491
 Vibration    23          0.954              1.040              0.457

 Optimization completed.
    -- Stationary point found.
 Normal termination of Gaussian 16 at Thu Oct 17 11:03:42 2024.
