 Gaussian 16, Revision C.01,
 Gaussian 16:  EM64L-G16RevC.01  3-Jul-2019

 ------------------------------------------------------
 # PBE1PBE/aug-cc-pVDZ opt freq EmpiricalDispersion=GD3
 ------------------------------------------------------

 ----
 blah
 ----
 Symbolic Z-matrix:
 Charge = -1 Multiplicity = 1

 SCF Done:  E(RPBE1PBE) =  -909.653395014     A.U. after   16 cycles
 SCF Done:  E(RPBE1PBE) =  -909.626508200     A.U. after   15 cycles
 SCF Done:  E(RPBE1PBE) =  -909.665831657     A.U. after   12 cycles
 SCF Done:  E(RPBE1PBE) =  -909.667062076     A.U. after   13 cycles
 SCF Done:  E(RPBE1PBE) =  -909.666642117     A.U. after   12 cycles
 SCF Done:  E(RPBE1PBE) =  -909.667084216     A.U. after   13 cycles
 SCF Done:  E(RPBE1PBE) =  -909.667819349     A.U. after   12 cycles
 SCF Done:  E(RPBE1PBE) =  -909.667858904     A.U. after   11 cycles
 SCF Done:  E(RPBE1PBE) =  -909.667903413     A.U. after   11 cycles
 SCF Done:  E(RPBE1PBE) =  -909.667944477     A.U. after   11 cycles
 SCF Done:  E(RPBE1PBE) =  -909.667969017     A.U. after   11 cycles
 SCF Done:  E(RPBE1PBE) =  -909.667988669     A.U. after   10 cycles
 SCF Done:  E(RPBE1PBE) =  -909.668004965     A.U. after   10 cycles
 SCF Done:  E(RPBE1PBE) =  -909.668020834     A.U. after   10 cycles
 SCF Done:  E(RPBE1PBE) =  -909.668029257     A.U. after   10 cycles
 SCF Done:  E(RPBE1PBE) =  -909.668032674     A.U. after    9 cycles
 SCF Done:  E(RPBE1PBE) =  -909.668033353     A.U. after    9 cycles
 SCF Done:  E(RPBE1PBE) =  -909.668033445     A.U. after    8 cycles
 Optimization completed.
    -- Stationary point found.
 Normal termination of Gaussian 16 at Thu Oct 24 06:41:45 2024.

 ----------------------------------------------------------------------
 #N Geom=AllCheck Guess=TCheck SCRF=Check GenChk RPBE1PBE/Aug-CC-pVDZ F
 req
 ----------------------------------------------------------------------

 Structure from the checkpoint file:  "/scr/Gau-28394.chk"
 ----
 blah
 ----
 Charge = -1 Multiplicity = 1

                         Standard orientation:
 ---------------------------------------------------------------------
 Center     Atomic      Atomic             Coordinates (Angstroms)
 Number     Number       Type             X           Y           Z
 ---------------------------------------------------------------------
      1          6           0       -2.687063   -0.436280    0.268561
      2          6           0       -1.310317   -0.750731    0.853885
      3          6           0       -0.427299   -0.759780   -0.407163
      4          8           0       -1.258206   -1.957590    1.575883
      5          1           0       -0.989258    0.056949    1.515553
      6          8           0       -1.027637    0.144597   -1.323987
      7          1           0       -0.467869   -1.780509   -0.826566
      8          7           0        0.965066   -0.462744   -0.233249
      9          6           0       -2.362010    0.456541   -0.929273
     10          1           0       -3.343756    0.064975    0.993189
     11          8           0       -3.244495   -1.694604   -0.131953
     12          6           0       -2.495889    1.945633   -0.636036
     13          1           0       -3.031729    0.205888   -1.774489
     14          8           0       -1.945980    2.330589    0.586407
     15          1           0       -3.571367    2.195321   -0.611890
     16          1           0       -2.047362    2.489049   -1.489705
     17          1           0       -4.055485   -1.526261   -0.617088
     18          1           0       -1.818448   -2.584440    1.102073
     19          1           0       -0.984710    2.077705    0.595601
     20          6           0        1.890784   -1.339672   -0.742044
     21          6           0        3.212265   -1.103967   -0.648736
     22          6           0        3.673928    0.126967    0.007001
     23          7           0        2.721501    0.993804    0.473244
     24          6           0        1.419966    0.755332    0.368699
     25          1           0        1.479226   -2.233103   -1.214280
     26          1           0        3.943244   -1.805718   -1.045363
     27          8           0        4.887885    0.355136    0.118024
     28          8           0        0.537852    1.541680    0.786081
 ---------------------------------------------------------------------

 SCF Done:  E(RPBE1PBE) =  -909.668033445     A.U. after    1 cycles

 The electronic state is 1-A.
 Alpha  occ. eigenvalues --  -19.16194 -19.13327 -19.13257 -19.09118 -19.04227
 Alpha  occ. eigenvalues --  -19.02076 -14.31944 -14.21348 -10.21515 -10.20958
 Alpha  occ. eigenvalues --  -10.19981 -10.19216 -10.18146 -10.17442 -10.16778
 Alpha  occ. eigenvalues --  -10.15979 -10.09739  -1.00670  -0.98056  -0.96011
 Alpha  occ. eigenvalues --   -0.93271  -0.92813  -0.88811  -0.85479  -0.76145
 Alpha  occ. eigenvalues --   -0.70599  -0.68764  -0.65437  -0.58881  -0.54857
 Alpha  occ. eigenvalues --   -0.53190  -0.52135  -0.48826  -0.47494  -0.45120
 Alpha  occ. eigenvalues --   -0.43374  -0.41205  -0.41062  -0.38042  -0.37505
 Alpha  occ. eigenvalues --   -0.36546  -0.35596  -0.33620  -0.32781  -0.32497
 Alpha  occ. eigenvalues --   -0.31254  -0.30826  -0.29702  -0.29194  -0.28168
 Alpha  occ. eigenvalues --   -0.26666  -0.24963  -0.23988  -0.23780  -0.22467
 Alpha  occ. eigenvalues --   -0.21871  -0.20011  -0.18272  -0.16417  -0.14297
 Alpha  occ. eigenvalues --   -0.12420  -0.10932  -0.10134  -0.09954
 Alpha virt. eigenvalues --    0.05768   0.08202   0.08782   0.09558   0.10613
 Alpha virt. eigenvalues --    0.11562   0.11573   0.11878   0.12253   0.13398
 Alpha virt. eigenvalues --    0.13759   0.14063   0.15373   0.15490   0.15928

 Mulliken charges:
               1
     1  C    1.247388
     2  C    0.908895
     3  C    1.150147
     4  O   -0.662197
     5  H   -0.583652
     6  O   -0.917305
     7  H   -0.539256
     8  N    0.002792
     9  C    0.642373
    10  H   -0.356277
    11  O   -0.772133
    12  C    1.004357
    13  H   -0.486011
    14  O   -0.558167
    15  H   -0.305927
    16  H   -0.263048
    17  H    0.102858
    18  H    0.091104
    19  H    0.339567
    20  C    0.571599
    21  C    1.026151
    22  C    0.490763
    23  N   -0.530850
    24  C    0.460488
    25  H   -0.814232
    26  H   -0.581056
    27  O   -0.799327
    28  O   -0.869040
 Sum of Mulliken charges =  -1.00000

 Dipole moment (field-independent basis, Debye):
    X=            -12.9664    Y=             -5.8718    Z=             -4.2637  Tot=             14.8588
 Quadrupole moment (field-independent basis, Debye-Ang):
   XX=           -155.6019   YY=           -116.3972   ZZ=           -109.2330
   XY=             -7.6862   XZ=              0.5502   YZ=             -1.6876

  Exact polarizability:     214.383      -4.876     144.926       2.267       8.449     116.266
 Approx polarizability:     282.795      -4.341     204.243       2.177      17.590     174.115

                      1                      2                      3
                      A                      A                      A
 Frequencies --     42.0879                62.4183                81.6159
 Red. masses --      8.6889                 5.3492                 4.9981
 Frc consts  --      0.0091                 0.0123                 0.0196
 IR Inten    --      1.1569                 2.9491                 2.9113

                      4                      5                      6
                      A                      A                      A
 Frequencies --    110.0040               150.1358               154.3149
 Red. masses --      5.3010                 2.4795                 2.1602
 Frc consts  --      0.0378                 0.0329                 0.0303
 IR Inten    --      5.1047                32.6271                69.2578

                      7                      8                      9
                      A                      A                      A
 Frequencies --    170.8092               186.2333               205.2683
 Red. masses --      4.4166                 5.8059                11.4932
 Frc consts  --      0.0759                 0.1186                 0.2853
 IR Inten    --     27.0732                11.2948                 6.6299

                     10                     11                     12
                      A                      A                      A
 Frequencies --    226.4458               256.0499               273.2496
 Red. masses --      4.2765                 7.0923                 4.7122
 Frc consts  --      0.1292                 0.2740                 0.2073
 IR Inten    --      8.6784                 9.6315                 2.3533

                     13                     14                     15
                      A                      A                      A
 Frequencies --    326.2903               349.2178               364.3017
 Red. masses --      3.6353                 4.3678                 5.0198
 Frc consts  --      0.2280                 0.3138                 0.3925
 IR Inten    --      2.2193                 8.2419                 2.9585

                     16                     17                     18
                      A                      A                      A
 Frequencies --    405.7993               424.2392               430.7157
 Red. masses --      2.2547                 5.2396                 1.7231
 Frc consts  --      0.2188                 0.5556                 0.1883
 IR Inten    --     13.7337                 7.6971                51.8463

                     19                     20                     21
                      A                      A                      A
 Frequencies --    455.8904               539.8218               574.7148
 Red. masses --      4.8351                 4.7894                 6.7670
 Frc consts  --      0.5921                 0.8223                 1.3169
 IR Inten    --      7.8876                19.0492                 4.0662

                     22                     23                     24
                      A                      A                      A
 Frequencies --    581.6143               599.1377               656.5247
 Red. masses --      7.0396                 7.3783                 5.6124
 Frc consts  --      1.4030                 1.5605                 1.4253
 IR Inten    --     30.1288                18.6615                 6.2906

                     25                     26                     27
                      A                      A                      A
 Frequencies --    712.6304               722.7477               760.5418
 Red. masses --      5.1159                 1.7456                 6.8312
 Frc consts  --      1.5307                 0.5372                 2.3280
 IR Inten    --     20.8688                15.5157                12.7337

                     28                     29                     30
                      A                      A                      A
 Frequencies --    768.2346               791.6002               831.5979
 Red. masses --      6.4120                10.0852                 3.4719
 Frc consts  --      2.2296                 3.7235                 1.4147
 IR Inten    --     35.3927                13.8489                34.9779

                     31                     32                     33
                      A                      A                      A
 Frequencies --    865.2560               885.1835               898.4428
 Red. masses --      3.2807                 1.3965                 2.1851
 Frc consts  --      1.4471                 0.6447                 1.0392
 IR Inten    --     57.3059                77.7016                35.0098

                     34                     35                     36
                      A                      A                      A
 Frequencies --    920.1312               945.2300               954.3709
 Red. masses --      3.3128                 1.2925                 2.3450
 Frc consts  --      1.6525                 0.6804                 1.2584
 IR Inten    --     14.4821                 0.4903                 4.5771

                     37                     38                     39
                      A                      A                      A
 Frequencies --    986.8333              1019.8093              1053.8859
 Red. masses --      4.3902                 2.3227                 2.8061
 Frc consts  --      2.5190                 1.4232                 1.8363
 IR Inten    --     29.3393                20.3582               116.6785

                     40                     41                     42
                      A                      A                      A
 Frequencies --   1071.7547              1111.9364              1114.2620
 Red. masses --      3.2066                 1.7219                 1.9392
 Frc consts  --      2.1701                 1.2543                 1.4186
 IR Inten    --     23.0888                 6.6838                74.4736

                     43                     44                     45
                      A                      A                      A
 Frequencies --   1135.6055              1145.2067              1178.2090
 Red. masses --      2.5179                 3.9909                 2.9898
 Frc consts  --      1.9131                 3.0838                 2.4453
 IR Inten    --     57.7891               157.2842               130.8653

                     46                     47                     48
                      A                      A                      A
 Frequencies --   1190.7743              1233.6004              1250.1655
 Red. masses --      1.4243                 1.6973                 1.2564
 Frc consts  --      1.1899                 1.5218                 1.1570
 IR Inten    --     20.2827                33.3441                36.2329

                     49                     50                     51
                      A                      A                      A
 Frequencies --   1259.4075              1287.0854              1289.9732
 Red. masses --      1.5755                 1.2614                 1.8385
 Frc consts  --      1.4724                 1.2312                 1.8025
 IR Inten    --     28.3195                 9.1029                 9.5419

                     52                     53                     54
                      A                      A                      A
 Frequencies --   1301.7595              1315.2740              1330.3212
 Red. masses --      1.8671                 1.7219                 1.6387
 Frc consts  --      1.8641                 1.7551                 1.7087
 IR Inten    --    140.1777                86.9288                11.6387

                     55                     56                     57
                      A                      A                      A
 Frequencies --   1344.4810              1364.5546              1366.5444
 Red. masses --      2.3363                 1.8673                 2.5307
 Frc consts  --      2.4882                 2.0485                 2.7845
 IR Inten    --    114.8773                27.2177                 9.2565

                     58                     59                     60
                      A                      A                      A
 Frequencies --   1384.4621              1398.6483              1447.4463
 Red. masses --      1.4780                 1.4340                 1.3785
 Frc consts  --      1.6692                 1.6528                 1.7016
 IR Inten    --     28.1712                16.7134                46.7582

                     61                     62                     63
                      A                      A                      A
 Frequencies --   1448.7682              1463.9389              1482.5922
 Red. masses --      1.6178                 1.0994                 3.9994
 Frc consts  --      2.0007                 1.3882                 5.1795
 IR Inten    --      1.8077                 4.3316                78.2078

                     64                     65                     66
                      A                      A                      A
 Frequencies --   1503.2891              1621.9838              1708.1650
 Red. masses --      1.1599                 9.3431                10.9830
 Frc consts  --      1.5444                14.4822                18.8813
 IR Inten    --     38.0507              1143.5381               148.0226

                     67                     68                     69
                      A                      A                      A
 Frequencies --   1725.1340              2973.9466              2991.7084
 Red. masses --      7.8602                 1.0716                 1.0739
 Frc consts  --     13.7825                 5.5843                 5.6632
 IR Inten    --    993.3937                20.2581               233.3123

                     70                     71                     72
                      A                      A                      A
 Frequencies --   3010.6688              3039.4897              3086.3697
 Red. masses --      1.0840                 1.1008                 1.0873
 Frc consts  --      5.7892                 5.9918                 6.1021
 IR Inten    --     54.9630               124.7746                30.7565

                     73                     74                     75
                      A                      A                      A
 Frequencies --   3175.8044              3187.8078              3235.5550
 Red. masses --      1.0881                 1.0892                 1.0966
 Frc consts  --      6.4658                 6.5214                 6.7639
 IR Inten    --      1.1367                14.2750                81.5733

                     76                     77                     78
                      A                      A                      A
 Frequencies --   3243.4101              3818.9480              3896.6254
 Red. masses --      1.0745                 1.0652                 1.0667
 Frc consts  --      6.6598                 9.1528                 9.5428
 IR Inten    --   1304.9237                46.2144                29.7337

 - Thermochemistry -
 -------------------
 Temperature   298.150 Kelvin.  Pressure   1.00000 Atm.
 Atom     1 has atomic number  6 and mass  12.00000

 Molecular mass:   243.06171 amu.
 Principal axes and moments of inertia in atomic units:
                           1         2         3
     Eigenvalues --  1914.858075704.890836605.95337
           X            0.99991  -0.01345   0.00028
           Y            0.01345   0.99991   0.00066
           Z           -0.00028  -0.00065   1.00000
 This molecule is an asymmetric top.
 Rotational symmetry number  1.
 Warning -- assumption of classical behavior for rotation
           may cause significant error
 Rotational temperatures (Kelvin)      0.04523     0.01518     0.01311
 Rotational constants (GHZ):           0.94249     0.31635     0.27320
 Zero-point vibrational energy     561521.6 (Joules/Mol)
                                  134.20687 (Kcal/Mol)
 Warning -- explicit consideration of  23 degrees of freedom as
           vibrations may cause significant error
 Vibrational temperatures:     60.56    89.81   117.43   158.27   216.01
          (Kelvin)            222.02   245.76   267.95   295.34   325.80
                              368.40   393.15   469.46   502.45   524.15
                              583.85   610.39   619.70   655.92   776.68
                              826.89   836.81   862.03   944.59  1025.32
                             1039.87  1094.25  1105.32  1138.94  1196.48
                             1244.91  1273.58  1292.66  1323.86  1359.98
                             1373.13  1419.83  1467.28  1516.31  1542.02
                             1599.83  1603.17  1633.88  1647.70  1695.18
                             1713.26  1774.88  1798.71  1812.01  1851.83
                             1855.98  1872.94  1892.39  1914.04  1934.41
                             1963.29  1966.15  1991.93  2012.34  2082.55
                             2084.45  2106.28  2133.12  2162.90  2333.67
                             2457.67  2482.08  4278.85  4304.40  4331.68
                             4373.15  4440.60  4569.27  4586.54  4655.24
                             4666.54  5494.61  5606.37

 Zero-point correction=                           0.213872 (Hartree/Particle)
 Thermal correction to Energy=                    0.228668
 Thermal correction to Enthalpy=                  0.229612
 Thermal correction to Gibbs Free Energy=         0.171844
 Sum of electronic and zero-point Energies=           -909.454161
 Sum of electronic and thermal Energies=              -909.439365
 Sum of electronic and thermal Enthalpies=            -909.438421
 Sum of electronic and thermal Free Energies=         -909.496189

                     E (Thermal)             CV                S
                      KCal/Mol        Cal/Mol-Kelvin    Cal/Mol-Kelvin
 Total                  143.492             56.512            121.583
 Electronic               0.000              0.000              0.000
 Translational            0.889              2.981             42.365
 Rotational               0.889              2.981             32.645
 Vibrational            141.714             50.550             46.573
 Vibration     1          0.595              1.980              5.158
 Vibration     2          0.597              1.972              4.379
 Vibration     3          0.600              1.962              3.852
 Vibration     4          0.606              1.941              3.269
 Vibration     5          0.618              1.903              2.671
 Vibration     6          0.620              1.898              2.618
 Vibration     7          0.626              1.878              2.427
 Vibration     8          0.632              1.859              2.265
 Vibration     9          0.640              1.832              2.085
 Vibration    10          0.650              1.801              1.907
 Vibration    11          0.666              1.753              1.689
 Vibration    12          0.676              1.723              1.576
 Vibration    13          0.710              1.623              1.278
 Vibration    14          0.726              1.577              1.170
 Vibration    15          0.738              1.546              1.104
 Vibration    16          0.771              1.458              0.942
 Vibration    17          0.786              1.418              0.878
 Vibration    18          0.792              1.403              0.856
 Vibration    19          0.814              1.348              0.778
 Vibration    20          0.895              1.162              0.566
 Vibration    21          0.931              1.086              0.495
 Vibration    22          0.938              1.071              0.482
 Vibration    23          0.957              1.034              0.451

 Optimization completed.
    -- Stationary point found.
 Normal termination of Gaussian 16 at Thu Oct 24 06:57:08 2024.
