 Gaussian 16, Revision C.01,
 Gaussian 16:  EM64L-G16RevC.01  3-Jul-2019

 ------------------------------------------------------
 # PBE1PBE/aug-cc-pVDZ opt freq EmpiricalDispersion=GD3
 ------------------------------------------------------

 ----
 blah
 ----
 Symbolic Z-matrix:
 Charge =  0 Multiplicity = 2

 SCF Done:  E(UPBE1PBE) =  -909.508082997     A.U. after   72 cycles
 SCF Done:  E(UPBE1PBE) =  -909.506594929     A.U. after   35 cycles
 SCF Done:  E(UPBE1PBE) =  -909.513837353     A.U. after   31 cycles
 SCF Done:  E(UPBE1PBE) =  -909.515237181     A.U. after   29 cycles
 SCF Done:  E(UPBE1PBE) =  -909.515467904     A.U. after   31 cycles
 SCF Done:  E(UPBE1PBE) =  -909.516303422     A.U. after   25 cycles
 SCF Done:  E(UPBE1PBE) =  -909.516442270     A.U. after   25 cycles
 SCF Done:  E(UPBE1PBE) =  -909.516681527     A.U. after   26 cycles
 SCF Done:  E(UPBE1PBE) =  -909.516681934     A.U. after   27 cycles
 SCF Done:  E(UPBE1PBE) =  -909.516757130     A.U. after   23 cycles
 SCF Done:  E(UPBE1PBE) =  -909.516801169     A.U. after   22 cycles
 SCF Done:  E(UPBE1PBE) =  -909.516801529     A.U. after   22 cycles
 SCF Done:  E(UPBE1PBE) =  -909.516801940     A.U. after   23 cycles
 SCF Done:  E(UPBE1PBE) =  -909.516802463     A.U. after   23 cycles
 SCF Done:  E(UPBE1PBE) =  -909.516803013     A.U. after   21 cycles
 SCF Done:  E(UPBE1PBE) =  -909.516803315     A.U. after   22 cycles
 SCF Done:  E(UPBE1PBE) =  -909.516803449     A.U. after   21 cycles
 SCF Done:  E(UPBE1PBE) =  -909.516803544     A.U. after   21 cycles
 SCF Done:  E(UPBE1PBE) =  -909.516803638     A.U. after   21 cycles
 Optimization completed.
    -- Stationary point found.
 Normal termination of Gaussian 16 at Sat Oct 26 17:41:18 2024.

 ----------------------------------------------------------------------
 #N Geom=AllCheck Guess=TCheck SCRF=Check GenChk UPBE1PBE/Aug-CC-pVDZ F
 req
 ----------------------------------------------------------------------

 Structure from the checkpoint file:  "/scr/Gau-74309.chk"
 ----
 blah
 ----
 Charge =  0 Multiplicity = 2

                         Standard orientation:
 ---------------------------------------------------------------------
 Center     Atomic      Atomic             Coordinates (Angstroms)
 Number     Number       Type             X           Y           Z
 ---------------------------------------------------------------------
      1          6           0       -2.651868   -0.524924    0.284369
      2          6           0       -1.246161   -0.770301    0.839526
      3          6           0       -0.426608   -0.716271   -0.462314
      4          8           0       -1.092270   -1.972610    1.534127
      5          1           0       -0.959286    0.057010    1.494242
      6          8           0       -1.030933    0.229767   -1.290049
      7          1           0       -0.456741   -1.720609   -0.919243
      8          7           0        0.990088   -0.405462   -0.302430
      9          6           0       -2.406624    0.421050   -0.894992
     10          1           0       -3.314035   -0.081150    1.038759
     11          8           0       -3.122175   -1.804069   -0.136356
     12          6           0       -2.651468    1.885240   -0.573134
     13          1           0       -3.035818    0.122692   -1.748626
     14          8           0       -2.111782    2.278509    0.659385
     15          1           0       -3.738675    2.049143   -0.519002
     16          1           0       -2.263892    2.490355   -1.411260
     17          1           0       -4.071207   -1.765461   -0.277044
     18          1           0       -1.725880   -2.594767    1.150221
     19          1           0       -1.144100    2.178792    0.613525
     20          6           0        1.894845   -1.328029   -0.711656
     21          6           0        3.232650   -1.105444   -0.611471
     22          6           0        3.609752    0.125867    0.019931
     23          7           0        2.740225    1.026761    0.463092
     24          6           0        1.401666    0.830547    0.273940
     25          1           0        1.483933   -2.233369   -1.155701
     26          1           0        3.974469   -1.812839   -0.967948
     27          8           0        4.866495    0.378144    0.173981
     28          8           0        0.565906    1.647097    0.632943
 ---------------------------------------------------------------------

 SCF Done:  E(UPBE1PBE) =  -909.516803638     A.U. after    1 cycles

 The electronic state is 2-A.
 Alpha  occ. eigenvalues --  -19.30956 -19.26761 -19.26239 -19.24635 -19.21479
 Alpha  occ. eigenvalues --  -19.21170 -14.50322 -14.42537 -10.38729 -10.36720
 Alpha  occ. eigenvalues --  -10.35228 -10.33647 -10.31317 -10.30612 -10.30396
 Alpha  occ. eigenvalues --  -10.28311 -10.28287  -1.14209  -1.13329  -1.10954
 Alpha  occ. eigenvalues --   -1.09567  -1.07501  -1.05039  -1.03281  -0.96329
 Alpha  occ. eigenvalues --   -0.85333  -0.82415  -0.80127  -0.72756  -0.71970
 Alpha  occ. eigenvalues --   -0.67982  -0.65883  -0.63461  -0.60757  -0.59724
 Alpha  occ. eigenvalues --   -0.58006  -0.55785  -0.54833  -0.52666  -0.51802
 Alpha  occ. eigenvalues --   -0.51264  -0.49852  -0.49330  -0.48904  -0.48070
 Alpha  occ. eigenvalues --   -0.46912  -0.46061  -0.45061  -0.44033  -0.42371
 Alpha  occ. eigenvalues --   -0.41136  -0.40294  -0.39416  -0.38212  -0.36630
 Alpha  occ. eigenvalues --   -0.35450  -0.33489  -0.33072  -0.32953  -0.31934
 Alpha  occ. eigenvalues --   -0.31092  -0.29832  -0.28242  -0.27541
 Alpha virt. eigenvalues --   -0.06610  -0.02295  -0.01895  -0.01090   0.00250
 Alpha virt. eigenvalues --    0.00939   0.02042   0.02305   0.02885   0.03868
 Alpha virt. eigenvalues --    0.04362   0.04500   0.04847   0.05855   0.06180

  Beta  occ. eigenvalues --  -19.28890 -19.26761 -19.26200 -19.24628 -19.21460
  Beta  occ. eigenvalues --  -19.21169 -14.50121 -14.42119 -10.38784 -10.36950
  Beta  occ. eigenvalues --  -10.35235 -10.33735 -10.31314 -10.30593 -10.30397
  Beta  occ. eigenvalues --  -10.28310 -10.28068  -1.13569  -1.11311  -1.09783
  Beta  occ. eigenvalues --   -1.09012  -1.07486  -1.04997  -1.02970  -0.94903
  Beta  occ. eigenvalues --   -0.84950  -0.82383  -0.79923  -0.72593  -0.71678
  Beta  occ. eigenvalues --   -0.67497  -0.65755  -0.63340  -0.60431  -0.59426
  Beta  occ. eigenvalues --   -0.57937  -0.55670  -0.54264  -0.52044  -0.51447
  Beta  occ. eigenvalues --   -0.50277  -0.49696  -0.49012  -0.48061  -0.47518
  Beta  occ. eigenvalues --   -0.46380  -0.44931  -0.44552  -0.42599  -0.42344
  Beta  occ. eigenvalues --   -0.41081  -0.40068  -0.39128  -0.36602  -0.35403
  Beta  occ. eigenvalues --   -0.33131  -0.33049  -0.32683  -0.31284  -0.30691
  Beta  occ. eigenvalues --   -0.29683  -0.27648  -0.27045
  Beta virt. eigenvalues --   -0.20089  -0.05505  -0.02292  -0.01506  -0.01087
  Beta virt. eigenvalues --    0.00253   0.00968   0.02053   0.02330   0.02894
  Beta virt. eigenvalues --    0.03869   0.04387   0.04534   0.04864   0.05879

 Mulliken charges and spin densities:
               1          2
     1  C    1.158551   0.001902
     2  C    0.942630   0.011303
     3  C    1.099170  -0.016906
     4  O   -0.667225   0.002559
     5  H   -0.569905   0.000312
     6  O   -0.920109   0.011660
     7  H   -0.517222   0.003545
     8  N    0.067940   0.100036
     9  C    0.702483   0.000708
    10  H   -0.336476   0.000426
    11  O   -0.774280  -0.000118
    12  C    1.039012   0.000195
    13  H   -0.461103   0.001379
    14  O   -0.493854   0.000478
    15  H   -0.285759  -0.000034
    16  H   -0.253910  -0.000056
    17  H    0.132132   0.000093
    18  H    0.120545  -0.000137
    19  H    0.258653  -0.000260
    20  C    0.597196  -0.086863
    21  C    1.095813   0.201788
    22  C    0.532345  -0.214577
    23  N   -0.478388   0.214611
    24  C    0.516117  -0.035255
    25  H   -0.754421   0.003932
    26  H   -0.501651  -0.002689
    27  O   -0.544855   0.791644
    28  O   -0.703427   0.010325
 Sum of Mulliken charges =  -0.00000   1.00000

 Dipole moment (field-independent basis, Debye):
    X=             -3.5764    Y=             -5.5777    Z=             -3.7654  Tot=              7.6210
 Quadrupole moment (field-independent basis, Debye-Ang):
   XX=            -89.2482   YY=           -102.8849   ZZ=           -102.4827
   XY=             -4.9173   XZ=             -1.3616   YZ=             -0.6541

  Exact polarizability:     332.620      14.146     154.371      11.986      15.781     109.418
 Approx polarizability:     327.053       1.121     228.309       6.871      31.720     167.257

                      1                      2                      3
                      A                      A                      A
 Frequencies --     29.4145                48.8523                80.2793
 Red. masses --      6.8424                 7.1365                 5.1506
 Frc consts  --      0.0035                 0.0100                 0.0196
 IR Inten    --     18.0439                 5.7315                 7.3854

                      4                      5                      6
                      A                      A                      A
 Frequencies --     84.7519               104.4857               153.0897
 Red. masses --      6.1158                 8.3549                 7.1941
 Frc consts  --      0.0259                 0.0537                 0.0993
 IR Inten    --     43.1838                16.9238                 1.4596

                      7                      8                      9
                      A                      A                      A
 Frequencies --    158.1008               173.8776               208.8119
 Red. masses --      4.6451                 6.7598                 1.3885
 Frc consts  --      0.0684                 0.1204                 0.0357
 IR Inten    --     16.7564                 5.5986                84.7292

                     10                     11                     12
                      A                      A                      A
 Frequencies --    226.4164               246.6270               273.7510
 Red. masses --      3.5076                 8.2204                 5.4284
 Frc consts  --      0.1059                 0.2946                 0.2397
 IR Inten    --     14.8422                17.8878                46.5513

                     13                     14                     15
                      A                      A                      A
 Frequencies --    306.1311               351.0564               361.0857
 Red. masses --      3.9840                 4.4380                 6.0401
 Frc consts  --      0.2200                 0.3223                 0.4640
 IR Inten    --     22.1682                 4.1115                 3.8690

                     16                     17                     18
                      A                      A                      A
 Frequencies --    375.5765               406.5157               454.7506
 Red. masses --      6.3334                 4.3175                 4.8820
 Frc consts  --      0.5264                 0.4204                 0.5948
 IR Inten    --      4.2759               134.3234                97.2375

                     19                     20                     21
                      A                      A                      A
 Frequencies --    478.7516               483.1818               548.7428
 Red. masses --      1.2979                 3.9405                 4.4260
 Frc consts  --      0.1753                 0.5420                 0.7852
 IR Inten    --    146.6688              1879.8141                18.9334

                     22                     23                     24
                      A                      A                      A
 Frequencies --    569.2579               590.7999               615.0114
 Red. masses --      6.4455                 8.1657                 7.5632
 Frc consts  --      1.2306                 1.6793                 1.6855
 IR Inten    --     89.8632                57.8706               673.2022

                     25                     26                     27
                      A                      A                      A
 Frequencies --    650.5560               695.6203               697.2929
 Red. masses --      6.0928                 2.5085                 1.2541
 Frc consts  --      1.5193                 0.7152                 0.3593
 IR Inten    --     79.7247                56.8097                97.3004

                     28                     29                     30
                      A                      A                      A
 Frequencies --    712.7906               752.3721               757.1025
 Red. masses --      4.6421                 4.4921                 1.8306
 Frc consts  --      1.3896                 1.4982                 0.6182
 IR Inten    --     57.9117                19.6500                38.1005

                     31                     32                     33
                      A                      A                      A
 Frequencies --    794.5155               860.0006               885.7709
 Red. masses --      9.4015                 4.5287                 3.2985
 Frc consts  --      3.4967                 1.9734                 1.5248
 IR Inten    --     37.3340               113.5522                51.1581

                     34                     35                     36
                      A                      A                      A
 Frequencies --    908.0575               925.7226               947.8685
 Red. masses --      3.1376                 5.7141                 2.4499
 Frc consts  --      1.5243                 2.8851                 1.2969
 IR Inten    --    321.0452               787.8080                21.7884

                     37                     38                     39
                      A                      A                      A
 Frequencies --    960.9131               978.3246              1013.3442
 Red. masses --      1.4373                 4.1720                 2.2737
 Frc consts  --      0.7819                 2.3527                 1.3756
 IR Inten    --     14.1815               281.8694                39.7944

                     40                     41                     42
                      A                      A                      A
 Frequencies --   1076.4978              1088.4903              1103.5050
 Red. masses --      2.8123                 2.2377                 2.9350
 Frc consts  --      1.9202                 1.5621                 2.1058
 IR Inten    --      2.6199                68.7952                69.2326

                     43                     44                     45
                      A                      A                      A
 Frequencies --   1118.8749              1128.3600              1144.1786
 Red. masses --      2.7496                 2.2740                 2.3643
 Frc consts  --      2.0280                 1.7058                 1.8237
 IR Inten    --    119.9722                70.7274                39.7079

                     46                     47                     48
                      A                      A                      A
 Frequencies --   1162.4737              1169.1735              1199.4935
 Red. masses --      4.0474                 2.7171                 1.4175
 Frc consts  --      3.2225                 2.1884                 1.2016
 IR Inten    --    177.4176                36.5602                43.7597

                     49                     50                     51
                      A                      A                      A
 Frequencies --   1223.8655              1243.3592              1255.7914
 Red. masses --      3.2736                 1.1196                 1.4241
 Frc consts  --      2.8890                 1.0197                 1.3232
 IR Inten    --     45.8475                19.1306                15.8025

                     52                     53                     54
                      A                      A                      A
 Frequencies --   1278.9443              1296.7218              1311.4286
 Red. masses --      1.3016                 1.4683                 1.5339
 Frc consts  --      1.2544                 1.4547                 1.5543
 IR Inten    --      5.3293                30.2126                 2.7629

                     55                     56                     57
                      A                      A                      A
 Frequencies --   1329.1705              1344.9241              1367.2745
 Red. masses --      1.7161                 1.5371                 1.6118
 Frc consts  --      1.7863                 1.6381                 1.7753
 IR Inten    --      6.9234                19.6265                12.4458

                     58                     59                     60
                      A                      A                      A
 Frequencies --   1379.9543              1384.3499              1407.8162
 Red. masses --      3.2891                 1.4320                 1.3981
 Frc consts  --      3.6902                 1.6169                 1.6326
 IR Inten    --     43.7334                30.4719                17.9348

                     61                     62                     63
                      A                      A                      A
 Frequencies --   1438.0127              1443.2364              1453.7266
 Red. masses --      1.4024                 1.3763                 1.2134
 Frc consts  --      1.7086                 1.6891                 1.5108
 IR Inten    --     52.2821                13.6568                26.6148

                     64                     65                     66
                      A                      A                      A
 Frequencies --   1467.8644              1519.1269              1632.1173
 Red. masses --      1.0812                 5.3144                 5.9931
 Frc consts  --      1.3726                 7.2259                 9.4060
 IR Inten    --      1.6248                16.4524               136.9084

                     67                     68                     69
                      A                      A                      A
 Frequencies --   1748.2300              3022.1834              3023.6569
 Red. masses --     11.7373                 1.0646                 1.0829
 Frc consts  --     21.1356                 5.7291                 5.8333
 IR Inten    --    797.0730                38.9526                45.2871

                     70                     71                     72
                      A                      A                      A
 Frequencies --   3057.5741              3089.3126              3109.0329
 Red. masses --      1.0868                 1.1001                 1.0885
 Frc consts  --      5.9861                 6.1861                 6.1989
 IR Inten    --     59.4753                44.7624                14.2766

                     73                     74                     75
                      A                      A                      A
 Frequencies --   3166.0836              3229.5141              3276.2736
 Red. masses --      1.0876                 1.0915                 1.0972
 Frc consts  --      6.4236                 6.7072                 6.9387
 IR Inten    --      1.5053                 9.1907                 0.7039

                     76                     77                     78
                      A                      A                      A
 Frequencies --   3636.8344              3782.6295              3899.9410
 Red. masses --      1.0679                 1.0651                 1.0672
 Frc consts  --      8.3218                 8.9792                 9.5633
 IR Inten    --    610.0361               119.0314                86.8235

 - Thermochemistry -
 -------------------
 Temperature   298.150 Kelvin.  Pressure   1.00000 Atm.
 Atom     1 has atomic number  6 and mass  12.00000

 Molecular mass:   243.06171 amu.
 Principal axes and moments of inertia in atomic units:
                           1         2         3
     Eigenvalues --  1914.834865664.010506626.74413
           X            0.99991  -0.01303  -0.00073
           Y            0.01303   0.99992   0.00003
           Z            0.00073  -0.00004   1.00000
 This molecule is an asymmetric top.
 Rotational symmetry number  1.
 Warning -- assumption of classical behavior for rotation
           may cause significant error
 Rotational temperatures (Kelvin)      0.04523     0.01529     0.01307
 Rotational constants (GHZ):           0.94250     0.31863     0.27234
 Zero-point vibrational energy     555543.2 (Joules/Mol)
                                  132.77801 (Kcal/Mol)
 Warning -- explicit consideration of  24 degrees of freedom as
           vibrations may cause significant error
 Vibrational temperatures:     42.32    70.29   115.50   121.94   150.33
          (Kelvin)            220.26   227.47   250.17   300.43   325.76
                              354.84   393.87   440.45   505.09   519.52
                              540.37   584.89   654.28   688.82   695.19
                              789.52   819.04   850.03   884.86   936.00
                             1000.84  1003.25  1025.55  1082.50  1089.30
                             1143.13  1237.35  1274.43  1306.49  1331.91
                             1363.77  1382.54  1407.59  1457.98  1548.84
                             1566.09  1587.70  1609.81  1623.46  1646.22
                             1672.54  1682.18  1725.80  1760.87  1788.92
                             1806.80  1840.12  1865.69  1886.85  1912.38
                             1935.05  1967.20  1985.45  1991.77  2025.53
                             2068.98  2076.50  2091.59  2111.93  2185.68
                             2348.25  2515.31  4348.25  4350.37  4399.17
                             4444.83  4473.20  4555.29  4646.55  4713.83
                             5232.59  5442.36  5611.15

 Zero-point correction=                           0.211595 (Hartree/Particle)
 Thermal correction to Energy=                    0.226951
 Thermal correction to Enthalpy=                  0.227895
 Thermal correction to Gibbs Free Energy=         0.167697
 Sum of electronic and zero-point Energies=           -909.305208
 Sum of electronic and thermal Energies=              -909.289853
 Sum of electronic and thermal Enthalpies=            -909.288909
 Sum of electronic and thermal Free Energies=         -909.349107

                     E (Thermal)             CV                S
                      KCal/Mol        Cal/Mol-Kelvin    Cal/Mol-Kelvin
 Total                  142.414             58.242            126.697
 Electronic               0.000              0.000              1.377
 Translational            0.889              2.981             42.365
 Rotational               0.889              2.981             32.641
 Vibrational            140.636             52.281             50.313
 Vibration     1          0.593              1.984              5.869
 Vibration     2          0.595              1.978              4.863
 Vibration     3          0.600              1.963              3.884
 Vibration     4          0.601              1.960              3.778
 Vibration     5          0.605              1.946              3.369
 Vibration     6          0.619              1.899              2.633
 Vibration     7          0.621              1.894              2.572
 Vibration     8          0.627              1.875              2.393
 Vibration     9          0.642              1.827              2.054
 Vibration    10          0.650              1.801              1.907
 Vibration    11          0.661              1.768              1.755
 Vibration    12          0.676              1.722              1.572
 Vibration    13          0.697              1.662              1.383
 Vibration    14          0.728              1.573              1.161
 Vibration    15          0.735              1.552              1.117
 Vibration    16          0.746              1.522              1.057
 Vibration    17          0.771              1.456              0.939
 Vibration    18          0.813              1.350              0.782
 Vibration    19          0.835              1.297              0.713
 Vibration    20          0.839              1.287              0.702
 Vibration    21          0.904              1.142              0.547
 Vibration    22          0.925              1.098              0.506
 Vibration    23          0.948              1.051              0.466
 Vibration    24          0.975              1.000              0.425

                           ! Non-Optimized Parameters !
 Normal termination of Gaussian 16 at Sat Oct 26 18:07:38 2024.
