 Gaussian 16, Revision C.01,
 Gaussian 16:  EM64L-G16RevC.01  3-Jul-2019

 ------------------------------------------------------
 # PBE1PBE/aug-cc-pVDZ opt freq EmpiricalDispersion=GD3
 ------------------------------------------------------

 ----
 blah
 ----
 Symbolic Z-matrix:
 Charge =  0 Multiplicity = 1

 SCF Done:  E(RPBE1PBE) =  -910.202785145     A.U. after   14 cycles
 SCF Done:  E(RPBE1PBE) =  -910.213300680     A.U. after   12 cycles
 SCF Done:  E(RPBE1PBE) =  -910.214494635     A.U. after   12 cycles
 SCF Done:  E(RPBE1PBE) =  -910.214736339     A.U. after   12 cycles
 SCF Done:  E(RPBE1PBE) =  -910.214937082     A.U. after   11 cycles
 SCF Done:  E(RPBE1PBE) =  -910.214966714     A.U. after   10 cycles
 SCF Done:  E(RPBE1PBE) =  -910.214979055     A.U. after   10 cycles
 SCF Done:  E(RPBE1PBE) =  -910.214988795     A.U. after   10 cycles
 SCF Done:  E(RPBE1PBE) =  -910.215005690     A.U. after   10 cycles
 SCF Done:  E(RPBE1PBE) =  -910.215025800     A.U. after   10 cycles
 SCF Done:  E(RPBE1PBE) =  -910.216121880     A.U. after   11 cycles
 SCF Done:  E(RPBE1PBE) =  -910.216132281     A.U. after    9 cycles
 SCF Done:  E(RPBE1PBE) =  -910.216137103     A.U. after    9 cycles
 SCF Done:  E(RPBE1PBE) =  -910.216137914     A.U. after    8 cycles
 SCF Done:  E(RPBE1PBE) =  -910.216138289     A.U. after    8 cycles
 SCF Done:  E(RPBE1PBE) =  -910.216138436     A.U. after    8 cycles
 SCF Done:  E(RPBE1PBE) =  -910.216138500     A.U. after    8 cycles
 SCF Done:  E(RPBE1PBE) =  -910.216138547     A.U. after    8 cycles
 SCF Done:  E(RPBE1PBE) =  -910.216138569     A.U. after    7 cycles
 Optimization completed.
    -- Stationary point found.
 Normal termination of Gaussian 16 at Thu Oct 17 08:23:24 2024.

 ----------------------------------------------------------------------
 #N Geom=AllCheck Guess=TCheck SCRF=Check GenChk RPBE1PBE/Aug-CC-pVDZ F
 req
 ----------------------------------------------------------------------

 Structure from the checkpoint file:  "/scr/Gau-19223.chk"
 ----
 blah
 ----
 Charge =  0 Multiplicity = 1

                         Standard orientation:
 ---------------------------------------------------------------------
 Center     Atomic      Atomic             Coordinates (Angstroms)
 Number     Number       Type             X           Y           Z
 ---------------------------------------------------------------------
      1          6           0       -2.038404   -0.167034    0.819857
      2          6           0       -1.174217   -1.371677    0.430546
      3          6           0       -0.409147   -0.820276   -0.774917
      4          8           0       -1.989571   -2.427713   -0.013028
      5          1           0       -0.485461   -1.700386    1.223858
      6          8           0       -1.204100    0.196745   -1.336353
      7          1           0       -0.222661   -1.618057   -1.501529
      8          7           0        0.900479   -0.260547   -0.398208
      9          6           0       -2.377585    0.409797   -0.550580
     10          1           0       -1.456440    0.562403    1.400749
     11          8           0       -3.230430   -0.531830    1.490128
     12          6           0       -2.766545    1.866631   -0.571891
     13          1           0       -3.213614   -0.172053   -0.973166
     14          8           0       -1.783896    2.628206    0.113789
     15          1           0       -3.752188    1.956886   -0.085504
     16          1           0       -2.859946    2.189097   -1.620892
     17          1           0       -3.066866   -0.541544    2.437357
     18          1           0       -2.792317   -2.405393    0.524954
     19          1           0       -1.994752    3.561044    0.026654
     20          6           0        1.086608    1.076755   -0.159114
     21          6           0        2.283982    1.592561    0.200770
     22          6           0        3.436634    0.726757    0.342953
     23          7           0        3.146704   -0.618951    0.077502
     24          6           0        1.938199   -1.175602   -0.269612
     25          1           0        0.199227    1.694234   -0.286467
     26          1           0        2.408572    2.655939    0.380564
     27          1           0        3.913441   -1.274130    0.170479
     28          8           0        4.566831    1.059094    0.658036
     29          8           0        1.780612   -2.371880   -0.445096
 ---------------------------------------------------------------------

 SCF Done:  E(RPBE1PBE) =  -910.216138569     A.U. after    1 cycles

 The electronic state is 1-A.
 Alpha  occ. eigenvalues --  -19.27279 -19.26446 -19.26012 -19.24212 -19.20831
 Alpha  occ. eigenvalues --  -19.19715 -14.47213 -14.45124 -10.38424 -10.34790
 Alpha  occ. eigenvalues --  -10.34283 -10.31476 -10.31088 -10.30726 -10.30522
 Alpha  occ. eigenvalues --  -10.30423 -10.24652  -1.13414  -1.11378  -1.10168
 Alpha  occ. eigenvalues --   -1.08875  -1.07571  -1.07148  -1.01313  -0.96234
 Alpha  occ. eigenvalues --   -0.83688  -0.82991  -0.80055  -0.73209  -0.71532
 Alpha  occ. eigenvalues --   -0.67944  -0.65227  -0.63224  -0.60523  -0.58789
 Alpha  occ. eigenvalues --   -0.57969  -0.56237  -0.54788  -0.54011  -0.51609
 Alpha  occ. eigenvalues --   -0.51219  -0.51067  -0.48687  -0.47387  -0.46811
 Alpha  occ. eigenvalues --   -0.46507  -0.45109  -0.44292  -0.43337  -0.42728
 Alpha  occ. eigenvalues --   -0.41619  -0.41291  -0.39628  -0.38803  -0.37558
 Alpha  occ. eigenvalues --   -0.36580  -0.32888  -0.32526  -0.31952  -0.30886
 Alpha  occ. eigenvalues --   -0.30579  -0.29948  -0.27787  -0.25600
 Alpha virt. eigenvalues --   -0.03954  -0.02601  -0.01653  -0.00078   0.00723
 Alpha virt. eigenvalues --    0.00816   0.01861   0.02408   0.02565   0.03037
 Alpha virt. eigenvalues --    0.03244   0.04196   0.05107   0.05318   0.05816

 Mulliken charges:
               1
     1  C    0.580280
     2  C    1.311249
     3  C    0.791168
     4  O   -0.691794
     5  H   -0.456132
     6  O   -0.803651
     7  H   -0.448276
     8  N    0.004963
     9  C    0.795793
    10  H   -0.465453
    11  O   -0.623014
    12  C    1.199345
    13  H   -0.549209
    14  O   -0.632615
    15  H   -0.217819
    16  H   -0.191282
    17  H    0.143633
    18  H    0.168781
    19  H    0.160344
    20  C    0.746089
    21  C    1.235961
    22  C    0.367370
    23  N   -0.182090
    24  C    0.509550
    25  H   -0.742233
    26  H   -0.605549
    27  H   -0.114146
    28  O   -0.667745
    29  O   -0.623517
 Sum of Mulliken charges =   0.00000

 Dipole moment (field-independent basis, Debye):
    X=             -6.4865    Y=              3.2130    Z=              1.6268  Tot=              7.4192
 Quadrupole moment (field-independent basis, Debye-Ang):
   XX=           -111.6187   YY=            -99.5807   ZZ=            -94.2157
   XY=            -11.6809   XZ=             -6.8058   YZ=             -6.3584

  Exact polarizability:     180.386       8.275     149.263       9.015       4.698     104.302
 Approx polarizability:     235.369      19.135     215.832      18.928      12.606     158.800

                      1                      2                      3
                      A                      A                      A
 Frequencies --     33.6368                48.9827                79.5303
 Red. masses --      6.1925                 7.0435                 6.2267
 Frc consts  --      0.0041                 0.0100                 0.0232
 IR Inten    --      0.2877                 1.4252                 0.3143

                      4                      5                      6
                      A                      A                      A
 Frequencies --    101.8076               119.2527               150.0464
 Red. masses --      6.0099                 5.2042                 6.3881
 Frc consts  --      0.0367                 0.0436                 0.0847
 IR Inten    --      5.4081                 4.6914                 1.9160

                      7                      8                      9
                      A                      A                      A
 Frequencies --    163.4761               201.1966               218.9944
 Red. masses --      9.8252                 5.7741                 1.9222
 Frc consts  --      0.1547                 0.1377                 0.0543
 IR Inten    --      4.0638                 4.6460                40.8278

                     10                     11                     12
                      A                      A                      A
 Frequencies --    249.7651               252.7204               263.1726
 Red. masses --      1.6892                 3.6395                 1.6334
 Frc consts  --      0.0621                 0.1370                 0.0667
 IR Inten    --      6.0999                 2.0572                65.6529

                     13                     14                     15
                      A                      A                      A
 Frequencies --    289.2975               291.8147               307.3450
 Red. masses --      5.6024                 2.4546                 6.1475
 Frc consts  --      0.2763                 0.1232                 0.3421
 IR Inten    --      4.6572                33.5651                10.5032

                     16                     17                     18
                      A                      A                      A
 Frequencies --    349.4726               405.0080               421.3919
 Red. masses --      4.4074                 9.3629                 3.2418
 Frc consts  --      0.3171                 0.9049                 0.3392
 IR Inten    --      1.7990                24.1053                 8.5456

                     19                     20                     21
                      A                      A                      A
 Frequencies --    446.2640               468.6689               546.0555
 Red. masses --      3.7667                 1.1302                 6.6274
 Frc consts  --      0.4420                 0.1463                 1.1643
 IR Inten    --      1.4129               138.5371                12.4409

                     22                     23                     24
                      A                      A                      A
 Frequencies --    561.5273               580.6722               625.1710
 Red. masses --      7.0788                 6.0497                 5.7370
 Frc consts  --      1.3151                 1.2018                 1.3211
 IR Inten    --     22.9680                18.5987                 9.3595

                     25                     26                     27
                      A                      A                      A
 Frequencies --    635.5890               696.2713               719.3326
 Red. masses --      4.5546                 1.1917                 4.3721
 Frc consts  --      1.0840                 0.3404                 1.3329
 IR Inten    --     13.7590                51.3635                 7.8599

                     28                     29                     30
                      A                      A                      A
 Frequencies --    729.7045               769.3553               782.7253
 Red. masses --      2.0620                 6.0355                 8.1624
 Frc consts  --      0.6469                 2.1048                 2.9464
 IR Inten    --      3.1982                11.3673                30.4944

                     31                     32                     33
                      A                      A                      A
 Frequencies --    793.8262               828.5001               863.8443
 Red. masses --      7.8529                 2.3080                 4.2975
 Frc consts  --      2.9156                 0.9334                 1.8894
 IR Inten    --     14.9156                50.6354                18.3870

                     34                     35                     36
                      A                      A                      A
 Frequencies --    885.6941               905.9076               977.3747
 Red. masses --      3.4307                 2.3898                 2.7813
 Frc consts  --      1.5856                 1.1555                 1.5654
 IR Inten    --      1.8745                15.5943                28.0557

                     37                     38                     39
                      A                      A                      A
 Frequencies --    989.1863              1015.0753              1018.6238
 Red. masses --      2.6119                 1.7752                 1.3914
 Frc consts  --      1.5058                 1.0777                 0.8506
 IR Inten    --      3.3667                29.3491                 2.7342

                     40                     41                     42
                      A                      A                      A
 Frequencies --   1060.5090              1084.2385              1114.5385
 Red. masses --      2.5416                 2.8819                 2.1436
 Frc consts  --      1.6842                 1.9961                 1.5688
 IR Inten    --     22.4422                94.0365                18.8845

                     43                     44                     45
                      A                      A                      A
 Frequencies --   1122.8270              1151.3866              1166.0000
 Red. masses --      2.3582                 3.2119                 3.0057
 Frc consts  --      1.7517                 2.5087                 2.4076
 IR Inten    --     15.5293                80.7874               131.8754

                     46                     47                     48
                      A                      A                      A
 Frequencies --   1172.0363              1190.4086              1200.4625
 Red. masses --      2.4557                 1.4513                 1.6929
 Frc consts  --      1.9875                 1.2117                 1.4374
 IR Inten    --    120.3580                55.2582                40.6953

                     49                     50                     51
                      A                      A                      A
 Frequencies --   1232.6302              1246.5159              1262.6591
 Red. masses --      1.7972                 2.7587                 1.2417
 Frc consts  --      1.6089                 2.5255                 1.1664
 IR Inten    --     70.0261                17.6454                11.6915

                     52                     53                     54
                      A                      A                      A
 Frequencies --   1280.5189              1298.4639              1302.6963
 Red. masses --      1.1262                 1.4636                 1.2308
 Frc consts  --      1.0880                 1.4539                 1.2307
 IR Inten    --     36.2553               137.5207                 6.8977

                     55                     56                     57
                      A                      A                      A
 Frequencies --   1325.6617              1342.9016              1368.6301
 Red. masses --      1.4854                 1.3135                 1.4539
 Frc consts  --      1.5380                 1.3956                 1.6046
 IR Inten    --     15.5020                15.7703                26.4150

                     58                     59                     60
                      A                      A                      A
 Frequencies --   1375.3074              1388.8960              1407.1415
 Red. masses --      1.4698                 1.4499                 2.2228
 Frc consts  --      1.6380                 1.6479                 2.5932
 IR Inten    --     14.0399                26.4226                30.2231

                     61                     62                     63
                      A                      A                      A
 Frequencies --   1417.8116              1426.8304              1445.1975
 Red. masses --      1.6496                 2.6878                 1.6073
 Frc consts  --      1.9538                 3.2240                 1.9779
 IR Inten    --      8.6652                61.9249                 5.0811

                     64                     65                     66
                      A                      A                      A
 Frequencies --   1458.8674              1481.3167              1498.5935
 Red. masses --      1.9562                 1.0857                 4.4273
 Frc consts  --      2.4530                 1.4037                 5.8581
 IR Inten    --      3.3980                 4.3284               161.5544

                     67                     68                     69
                      A                      A                      A
 Frequencies --   1690.8568              1792.2172              1798.5352
 Red. masses --      6.3680                 7.8131                12.0647
 Frc consts  --     10.7268                14.7862                22.9935
 IR Inten    --     94.9301              1086.0226               327.2016

                     70                     71                     72
                      A                      A                      A
 Frequencies --   3029.9166              3054.3624              3064.2025
 Red. masses --      1.0596                 1.0824                 1.0866
 Frc consts  --      5.7313                 5.9497                 6.0112
 IR Inten    --     23.9213                51.3582                18.0278

                     73                     74                     75
                      A                      A                      A
 Frequencies --   3085.2232              3091.7364              3139.3609
 Red. masses --      1.1071                 1.0871                 1.0885
 Frc consts  --      6.2088                 6.1223                 6.3207
 IR Inten    --     21.9492                27.9754                 2.2275

                     76                     77                     78
                      A                      A                      A
 Frequencies --   3235.2217              3270.1979              3631.3339
 Red. masses --      1.0937                 1.0962                 1.0777
 Frc consts  --      6.7445                 6.9072                 8.3729
 IR Inten    --     62.0878                 2.4767                73.3419

                     79                     80                     81
                      A                      A                      A
 Frequencies --   3793.9275              3884.6285              3896.0097
 Red. masses --      1.0655                 1.0669                 1.0669
 Frc consts  --      9.0365                 9.4861                 9.5415
 IR Inten    --     71.9026                62.2546                57.8891

 - Thermochemistry -
 -------------------
 Temperature   298.150 Kelvin.  Pressure   1.00000 Atm.
 Atom     1 has atomic number  6 and mass  12.00000

 Molecular mass:   244.06954 amu.
 Principal axes and moments of inertia in atomic units:
                           1         2         3
     Eigenvalues --  2256.384875457.570616852.28363
           X            0.99994  -0.01099  -0.00129
           Y            0.01097   0.99987  -0.01153
           Z            0.00141   0.01152   0.99993
 This molecule is an asymmetric top.
 Rotational symmetry number  1.
 Warning -- assumption of classical behavior for rotation
           may cause significant error
 Rotational temperatures (Kelvin)      0.03839     0.01587     0.01264
 Rotational constants (GHZ):           0.79984     0.33069     0.26338
 Zero-point vibrational energy     598533.9 (Joules/Mol)
                                  143.05304 (Kcal/Mol)
 Warning -- explicit consideration of  23 degrees of freedom as
           vibrations may cause significant error
 Vibrational temperatures:     48.40    70.48   114.43   146.48   171.58
          (Kelvin)            215.88   235.21   289.48   315.08   359.36
                              363.61   378.65   416.23   419.86   442.20
                              502.81   582.72   606.29   642.07   674.31
                              785.65   807.91   835.46   899.48   914.47
                             1001.78  1034.96  1049.88  1106.93  1126.17
                             1142.14  1192.03  1242.88  1274.32  1303.40
                             1406.22  1423.22  1460.47  1465.57  1525.84
                             1559.98  1603.57  1615.50  1656.59  1677.61
                             1686.30  1712.73  1727.20  1773.48  1793.46
                             1816.68  1842.38  1868.20  1874.29  1907.33
                             1932.14  1969.15  1978.76  1998.31  2024.56
                             2039.91  2052.89  2079.32  2098.98  2131.28
                             2156.14  2432.77  2578.60  2587.69  4359.37
                             4394.55  4408.70  4438.95  4448.32  4516.84
                             4654.76  4705.09  5224.68  5458.62  5589.11
                             5605.49

 Zero-point correction=                           0.227970 (Hartree/Particle)
 Thermal correction to Energy=                    0.243408
 Thermal correction to Enthalpy=                  0.244353
 Thermal correction to Gibbs Free Energy=         0.184920
 Sum of electronic and zero-point Energies=           -909.988169
 Sum of electronic and thermal Energies=              -909.972730
 Sum of electronic and thermal Enthalpies=            -909.971786
 Sum of electronic and thermal Free Energies=         -910.031218

                     E (Thermal)             CV                S
                      KCal/Mol        Cal/Mol-Kelvin    Cal/Mol-Kelvin
 Total                  152.741             58.610            125.086
 Electronic               0.000              0.000              0.000
 Translational            0.889              2.981             42.378
 Rotational               0.889              2.981             32.801
 Vibrational            150.964             52.649             49.908
 Vibration     1          0.594              1.983              5.602
 Vibration     2          0.595              1.978              4.858
 Vibration     3          0.600              1.963              3.902
 Vibration     4          0.604              1.948              3.419
 Vibration     5          0.609              1.933              3.112
 Vibration     6          0.618              1.903              2.672
 Vibration     7          0.623              1.887              2.509
 Vibration     8          0.638              1.838              2.122
 Vibration     9          0.647              1.812              1.967
 Vibration    10          0.663              1.763              1.732
 Vibration    11          0.664              1.758              1.712
 Vibration    12          0.670              1.740              1.641
 Vibration    13          0.686              1.694              1.478
 Vibration    14          0.687              1.689              1.463
 Vibration    15          0.697              1.660              1.377
 Vibration    16          0.727              1.576              1.169
 Vibration    17          0.770              1.459              0.944
 Vibration    18          0.784              1.424              0.887
 Vibration    19          0.806              1.369              0.807
 Vibration    20          0.826              1.320              0.741
 Vibration    21          0.901              1.148              0.552
 Vibration    22          0.917              1.115              0.521
 Vibration    23          0.937              1.073              0.484

 Optimization completed.
    -- Stationary point found.
 Normal termination of Gaussian 16 at Thu Oct 17 08:39:27 2024.
