 Gaussian 16, Revision C.01,
 Gaussian 16:  EM64L-G16RevC.01  3-Jul-2019

 ------------------------------------------------------
 # PBE1PBE/aug-cc-pVDZ opt freq EmpiricalDispersion=GD3
 ------------------------------------------------------

 ----
 blah
 ----
 Symbolic Z-matrix:
 Charge = -1 Multiplicity = 1

 SCF Done:  E(RPBE1PBE) =  -909.688423781     A.U. after   14 cycles
 SCF Done:  E(RPBE1PBE) =  -909.694646276     A.U. after   14 cycles
 SCF Done:  E(RPBE1PBE) =  -909.693203492     A.U. after   13 cycles
 SCF Done:  E(RPBE1PBE) =  -909.699970629     A.U. after   12 cycles
 SCF Done:  E(RPBE1PBE) =  -909.699535072     A.U. after   13 cycles
 SCF Done:  E(RPBE1PBE) =  -909.701146638     A.U. after   13 cycles
 SCF Done:  E(RPBE1PBE) =  -909.701286215     A.U. after   13 cycles
 SCF Done:  E(RPBE1PBE) =  -909.701822574     A.U. after   12 cycles
 SCF Done:  E(RPBE1PBE) =  -909.701861060     A.U. after   11 cycles
 SCF Done:  E(RPBE1PBE) =  -909.701882322     A.U. after   10 cycles
 SCF Done:  E(RPBE1PBE) =  -909.704017706     A.U. after   11 cycles
 SCF Done:  E(RPBE1PBE) =  -909.704360771     A.U. after   11 cycles
 SCF Done:  E(RPBE1PBE) =  -909.704851477     A.U. after   11 cycles
 SCF Done:  E(RPBE1PBE) =  -909.705136323     A.U. after   11 cycles
 SCF Done:  E(RPBE1PBE) =  -909.705362078     A.U. after   12 cycles
 SCF Done:  E(RPBE1PBE) =  -909.705443040     A.U. after   11 cycles
 SCF Done:  E(RPBE1PBE) =  -909.705459879     A.U. after   10 cycles
 SCF Done:  E(RPBE1PBE) =  -909.705467856     A.U. after   10 cycles
 SCF Done:  E(RPBE1PBE) =  -909.705468443     A.U. after    8 cycles
 Optimization completed.
    -- Stationary point found.
 Normal termination of Gaussian 16 at Sun Oct 27 00:56:18 2024.

 ----------------------------------------------------------------------
 #N Geom=AllCheck Guess=TCheck SCRF=Check GenChk RPBE1PBE/Aug-CC-pVDZ F
 req
 ----------------------------------------------------------------------

 Structure from the checkpoint file:  "/scr/Gau-40208.chk"
 ----
 blah
 ----
 Charge = -1 Multiplicity = 1

                         Standard orientation:
 ---------------------------------------------------------------------
 Center     Atomic      Atomic             Coordinates (Angstroms)
 Number     Number       Type             X           Y           Z
 ---------------------------------------------------------------------
      1          6           0       -2.739552   -0.538823    0.306272
      2          6           0       -1.317417   -0.752643    0.804912
      3          6           0       -0.504892   -0.735124   -0.495333
      4          8           0       -1.216215   -1.989870    1.497556
      5          1           0       -1.020894    0.083962    1.449044
      6          8           0       -1.177383    0.218278   -1.323472
      7          1           0       -0.597650   -1.741752   -0.948073
      8          6           0        0.938349   -0.423418   -0.328826
      9          6           0       -2.520205    0.414346   -0.869918
     10          1           0       -3.388797   -0.090736    1.074541
     11          8           0       -3.294533   -1.761234   -0.159405
     12          6           0       -2.702972    1.883970   -0.521962
     13          1           0       -3.216842    0.141867   -1.681047
     14          8           0       -2.002309    2.285491    0.623711
     15          1           0       -3.773178    2.073252   -0.335347
     16          1           0       -2.408387    2.473335   -1.410831
     17          1           0       -2.867756   -2.452095    0.365634
     18          1           0       -0.280793   -2.223786    1.511712
     19          1           0       -1.041943    2.090235    0.511384
     20          6           0        1.934266   -1.309087   -0.734035
     21          7           0        3.252665   -1.179074   -0.619531
     22          6           0        3.708312   -0.025227   -0.048236
     23          7           0        2.742956    0.914782    0.352667
     24          6           0        1.371379    0.809966    0.255899
     25          1           0        1.602529   -2.243414   -1.208850
     26          1           0        3.101879    1.768495    0.760042
     27          8           0        4.895775    0.250063    0.137264
     28          8           0        0.659526    1.750638    0.670245
 ---------------------------------------------------------------------

 SCF Done:  E(RPBE1PBE) =  -909.705468443     A.U. after    1 cycles

 The electronic state is 1-A.
 Alpha  occ. eigenvalues --  -19.14466 -19.12617 -19.11833 -19.09324 -19.07008
 Alpha  occ. eigenvalues --  -19.04561 -14.30696 -14.24418 -10.21496 -10.21209
 Alpha  occ. eigenvalues --  -10.18123 -10.17684 -10.17593 -10.17446 -10.16734
 Alpha  occ. eigenvalues --  -10.15501 -10.10490  -0.98927  -0.96292  -0.95236
 Alpha  occ. eigenvalues --   -0.94727  -0.92801  -0.92305  -0.83623  -0.78697
 Alpha  occ. eigenvalues --   -0.70654  -0.69205  -0.64765  -0.57642  -0.55027
 Alpha  occ. eigenvalues --   -0.53731  -0.51151  -0.49478  -0.45139  -0.43877
 Alpha  occ. eigenvalues --   -0.42680  -0.41185  -0.40692  -0.39709  -0.37411
 Alpha  occ. eigenvalues --   -0.36022  -0.35372  -0.34069  -0.32809  -0.32185
 Alpha  occ. eigenvalues --   -0.30943  -0.30292  -0.29949  -0.29183  -0.27943
 Alpha  occ. eigenvalues --   -0.27162  -0.26967  -0.23785  -0.22107  -0.21326
 Alpha  occ. eigenvalues --   -0.20172  -0.19262  -0.18147  -0.16841  -0.15933
 Alpha  occ. eigenvalues --   -0.15248  -0.14775  -0.13441  -0.09554
 Alpha virt. eigenvalues --    0.08226   0.08713   0.09849   0.10319   0.10530
 Alpha virt. eigenvalues --    0.11288   0.11492   0.11957   0.12401   0.13379
 Alpha virt. eigenvalues --    0.14467   0.14684   0.15070   0.15380   0.16165

 Mulliken charges:
               1
     1  C    1.150705
     2  C    0.661723
     3  C    1.157056
     4  O   -0.719792
     5  H   -0.578006
     6  O   -0.890132
     7  H   -0.756522
     8  C    0.987049
     9  C    0.843573
    10  H   -0.363925
    11  O   -0.736200
    12  C    1.000799
    13  H   -0.470304
    14  O   -0.533074
    15  H   -0.300624
    16  H   -0.255991
    17  H    0.162816
    18  H    0.152106
    19  H    0.299227
    20  C    0.703512
    21  N   -0.673053
    22  C    0.660310
    23  N   -0.397162
    24  C    0.397940
    25  H   -0.687708
    26  H   -0.107093
    27  O   -0.718803
    28  O   -0.988428
 Sum of Mulliken charges =  -1.00000

 Dipole moment (field-independent basis, Debye):
    X=             -7.4252    Y=             -1.3553    Z=              0.2949  Tot=              7.5537
 Quadrupole moment (field-independent basis, Debye-Ang):
   XX=           -171.7604   YY=           -113.8096   ZZ=           -107.2350
   XY=              3.7879   XZ=              4.6580   YZ=             -5.3491

  Exact polarizability:     209.564      -6.513     149.426       2.249       8.616     114.060
 Approx polarizability:     270.336     -12.576     220.511       0.514      20.624     174.197

                      1                      2                      3
                      A                      A                      A
 Frequencies --     50.5413                71.3919                96.4206
 Red. masses --      8.8200                 6.6913                 6.3747
 Frc consts  --      0.0133                 0.0201                 0.0349
 IR Inten    --      2.0098                 0.1871                 3.7582

                      4                      5                      6
                      A                      A                      A
 Frequencies --    119.8238               148.9803               166.2256
 Red. masses --      6.3200                 7.5550                 9.9346
 Frc consts  --      0.0535                 0.0988                 0.1617
 IR Inten    --      2.0057                 2.3642                 1.4999

                      7                      8                      9
                      A                      A                      A
 Frequencies --    167.9069               185.9473               224.6044
 Red. masses --      6.8423                10.1971                 3.5198
 Frc consts  --      0.1137                 0.2077                 0.1046
 IR Inten    --      8.2044                 6.0532                 1.8173

                     10                     11                     12
                      A                      A                      A
 Frequencies --    249.1935               270.1258               317.8940
 Red. masses --      5.6133                 4.7521                 1.9378
 Frc consts  --      0.2054                 0.2043                 0.1154
 IR Inten    --     17.4156                 2.6146                40.9487

                     13                     14                     15
                      A                      A                      A
 Frequencies --    334.9422               341.7640               362.8766
 Red. masses --      2.8705                 3.0208                 2.7809
 Frc consts  --      0.1897                 0.2079                 0.2158
 IR Inten    --     18.7827                 3.9743                29.7852

                     16                     17                     18
                      A                      A                      A
 Frequencies --    407.1664               433.4725               460.1143
 Red. masses --     11.1741                 1.6465                 2.2853
 Frc consts  --      1.0915                 0.1823                 0.2850
 IR Inten    --     21.6231                46.4111                28.0572

                     19                     20                     21
                      A                      A                      A
 Frequencies --    464.8290               536.3437               558.6315
 Red. masses --      2.8953                 5.3083                 6.2721
 Frc consts  --      0.3686                 0.8997                 1.1532
 IR Inten    --     10.2977                40.2662                 8.6246

                     22                     23                     24
                      A                      A                      A
 Frequencies --    579.1634               628.0330               653.9508
 Red. masses --      9.1736                 7.1788                 5.8926
 Frc consts  --      1.8130                 1.6683                 1.4847
 IR Inten    --      0.9669                17.6846                 7.6809

                     25                     26                     27
                      A                      A                      A
 Frequencies --    706.4764               717.3297               765.2331
 Red. masses --      1.1813                 4.4229                 5.9485
 Frc consts  --      0.3474                 1.3409                 2.0523
 IR Inten    --     46.1300                 9.0271                15.0911

                     28                     29                     30
                      A                      A                      A
 Frequencies --    788.7951               799.1417               815.0798
 Red. masses --     10.3078                 6.7016                10.8601
 Frc consts  --      3.7787                 2.5216                 4.2509
 IR Inten    --      0.8639                 2.7154                35.3543

                     31                     32                     33
                      A                      A                      A
 Frequencies --    854.4829               877.1932               899.1529
 Red. masses --      1.0634                 4.1539                 3.3272
 Frc consts  --      0.4575                 1.8832                 1.5849
 IR Inten    --    130.8271                10.5170                28.4524

                     34                     35                     36
                      A                      A                      A
 Frequencies --    925.3155               942.2395               985.6028
 Red. masses --      2.8597                 2.4195                 2.8323
 Frc consts  --      1.4426                 1.2656                 1.6211
 IR Inten    --     10.5208                13.6819                18.0904

                     37                     38                     39
                      A                      A                      A
 Frequencies --    989.5351              1016.0839              1051.4180
 Red. masses --      1.6026                 2.2503                 3.0350
 Frc consts  --      0.9246                 1.3688                 1.9768
 IR Inten    --     14.5073                17.8195               110.3803

                     40                     41                     42
                      A                      A                      A
 Frequencies --   1092.7966              1101.6138              1126.6123
 Red. masses --      3.9238                 2.4590                 3.2538
 Frc consts  --      2.7608                 1.7582                 2.4332
 IR Inten    --     14.4925                81.0909                50.9797

                     43                     44                     45
                      A                      A                      A
 Frequencies --   1130.7487              1167.9680              1189.8983
 Red. masses --      2.7414                 3.4711                 3.8358
 Frc consts  --      2.0651                 2.7899                 3.1998
 IR Inten    --    130.8777                69.8757                15.4009

                     46                     47                     48
                      A                      A                      A
 Frequencies --   1212.5004              1240.4129              1255.4679
 Red. masses --      1.3741                 1.1591                 1.7201
 Frc consts  --      1.1902                 1.0507                 1.5974
 IR Inten    --     40.1633                35.8403                21.4313

                     49                     50                     51
                      A                      A                      A
 Frequencies --   1261.8636              1272.3932              1300.6731
 Red. masses --      1.3975                 1.4288                 1.5721
 Frc consts  --      1.3111                 1.3629                 1.5670
 IR Inten    --      4.3867                16.3000                 2.9208

                     52                     53                     54
                      A                      A                      A
 Frequencies --   1304.7822              1338.3221              1349.7583
 Red. masses --      1.3558                 1.3545                 1.8555
 Frc consts  --      1.3600                 1.4294                 1.9917
 IR Inten    --      0.7553                29.8616               125.8793

                     55                     56                     57
                      A                      A                      A
 Frequencies --   1361.7348              1370.3566              1373.8326
 Red. masses --      1.6969                 1.4043                 1.3899
 Frc consts  --      1.8539                 1.5537                 1.5456
 IR Inten    --     32.3104                67.2036                15.5370

                     58                     59                     60
                      A                      A                      A
 Frequencies --   1389.0072              1410.7591              1423.2152
 Red. masses --      1.8894                 1.6595                 1.7026
 Frc consts  --      2.1477                 1.9460                 2.0319
 IR Inten    --      2.7730                36.9504                10.1304

                     61                     62                     63
                      A                      A                      A
 Frequencies --   1433.1958              1465.7999              1469.3561
 Red. masses --      2.6111                 1.0816                 1.2061
 Frc consts  --      3.1600                 1.3692                 1.5342
 IR Inten    --     13.1075                19.7754                27.9580

                     64                     65                     66
                      A                      A                      A
 Frequencies --   1506.4851              1632.2010              1681.5495
 Red. masses --      7.9239                 6.9425                 6.9331
 Frc consts  --     10.5954                10.8972                11.5505
 IR Inten    --     80.9715               435.4208               955.6764

                     67                     68                     69
                      A                      A                      A
 Frequencies --   1734.2974              2979.7779              2989.4386
 Red. masses --      9.9049                 1.0826                 1.0641
 Frc consts  --     17.5529                 5.6633                 5.6031
 IR Inten    --    956.8469                46.4676                93.3901

                     70                     71                     72
                      A                      A                      A
 Frequencies --   3035.1140              3052.4114              3060.5290
 Red. masses --      1.0865                 1.0889                 1.0944
 Frc consts  --      5.8972                 5.9777                 6.0400
 IR Inten    --     78.9108                14.6491               133.5450

                     73                     74                     75
                      A                      A                      A
 Frequencies --   3095.4303              3120.0645              3390.0536
 Red. masses --      1.0886                 1.0866                 1.0725
 Frc consts  --      6.1458                 6.2325                 7.2622
 IR Inten    --     50.8294                 6.7695              1000.6208

                     76                     77                     78
                      A                      A                      A
 Frequencies --   3634.7238              3780.5055              3826.7080
 Red. masses --      1.0770                 1.0654                 1.0663
 Frc consts  --      8.3832                 8.9711                 9.1995
 IR Inten    --     24.5958                62.3905                51.6312

 - Thermochemistry -
 -------------------
 Temperature   298.150 Kelvin.  Pressure   1.00000 Atm.
 Atom     1 has atomic number  6 and mass  12.00000

 Molecular mass:   243.06171 amu.
 Principal axes and moments of inertia in atomic units:
                           1         2         3
     Eigenvalues --  1926.604185873.256626858.69353
           X            0.99998  -0.00497   0.00285
           Y            0.00499   0.99996  -0.00684
           Z           -0.00282   0.00685   0.99997
 This molecule is an asymmetric top.
 Rotational symmetry number  1.
 Warning -- assumption of classical behavior for rotation
           may cause significant error
 Rotational temperatures (Kelvin)      0.04496     0.01475     0.01263
 Rotational constants (GHZ):           0.93675     0.30728     0.26313
 Zero-point vibrational energy     565389.7 (Joules/Mol)
                                  135.13139 (Kcal/Mol)
 Warning -- explicit consideration of  22 degrees of freedom as
           vibrations may cause significant error
 Vibrational temperatures:     72.72   102.72   138.73   172.40   214.35
          (Kelvin)            239.16   241.58   267.54   323.16   358.53
                              388.65   457.38   481.91   491.72   522.10
                              585.82   623.67   662.00   668.79   771.68
                              803.75   833.29   903.60   940.89  1016.46
                             1032.08  1101.00  1134.90  1149.79  1172.72
                             1229.41  1262.09  1293.68  1331.32  1355.67
                             1418.06  1423.72  1461.92  1512.76  1572.29
                             1584.98  1620.94  1626.90  1680.45  1712.00
                             1744.52  1784.68  1806.34  1815.54  1830.69
                             1871.38  1877.29  1925.55  1942.00  1959.23
                             1971.64  1976.64  1998.47  2029.77  2047.69
                             2062.05  2108.96  2114.08  2167.50  2348.37
                             2419.37  2495.27  4287.24  4301.14  4366.85
                             4391.74  4403.42  4453.63  4489.08  4877.53
                             5229.56  5439.30  5505.78

 Zero-point correction=                           0.215346 (Hartree/Particle)
 Thermal correction to Energy=                    0.229854
 Thermal correction to Enthalpy=                  0.230798
 Thermal correction to Gibbs Free Energy=         0.173981
 Sum of electronic and zero-point Energies=           -909.490123
 Sum of electronic and thermal Energies=              -909.475615
 Sum of electronic and thermal Enthalpies=            -909.474671
 Sum of electronic and thermal Free Energies=         -909.531488

                     E (Thermal)             CV                S
                      KCal/Mol        Cal/Mol-Kelvin    Cal/Mol-Kelvin
 Total                  144.235             56.087            119.582
 Electronic               0.000              0.000              0.000
 Translational            0.889              2.981             42.365
 Rotational               0.889              2.981             32.717
 Vibrational            142.458             50.125             44.499
 Vibration     1          0.595              1.977              4.796
 Vibration     2          0.598              1.968              4.115
 Vibration     3          0.603              1.952              3.525
 Vibration     4          0.609              1.933              3.103
 Vibration     5          0.618              1.904              2.685
 Vibration     6          0.624              1.884              2.478
 Vibration     7          0.625              1.882              2.459
 Vibration     8          0.632              1.859              2.268
 Vibration     9          0.649              1.804              1.922
 Vibration    10          0.662              1.764              1.736
 Vibration    11          0.674              1.728              1.595
 Vibration    12          0.704              1.639              1.321
 Vibration    13          0.716              1.606              1.236
 Vibration    14          0.721              1.592              1.204
 Vibration    15          0.737              1.549              1.110
 Vibration    16          0.772              1.455              0.937
 Vibration    17          0.794              1.397              0.847
 Vibration    18          0.818              1.339              0.766
 Vibration    19          0.822              1.328              0.752
 Vibration    20          0.891              1.170              0.573
 Vibration    21          0.914              1.121              0.527
 Vibration    22          0.936              1.076              0.487

                           ! Non-Optimized Parameters !
 Normal termination of Gaussian 16 at Sun Oct 27 01:11:22 2024.
