 Gaussian 16, Revision C.01,
 Gaussian 16:  EM64L-G16RevC.01  3-Jul-2019

 ------------------------------------------------------
 # PBE1PBE/aug-cc-pVDZ opt freq EmpiricalDispersion=GD3
 ------------------------------------------------------

 ----
 blah
 ----
 Symbolic Z-matrix:
 Charge =  0 Multiplicity = 2

 SCF Done:  E(UPBE1PBE) =  -909.517644398     A.U. after   36 cycles
 SCF Done:  E(UPBE1PBE) =  -909.519406745     A.U. after   27 cycles
 SCF Done:  E(UPBE1PBE) =  -909.521277971     A.U. after   26 cycles
 SCF Done:  E(UPBE1PBE) =  -909.522347702     A.U. after   28 cycles
 SCF Done:  E(UPBE1PBE) =  -909.523030663     A.U. after   25 cycles
 SCF Done:  E(UPBE1PBE) =  -909.525259267     A.U. after   22 cycles
 SCF Done:  E(UPBE1PBE) =  -909.525688796     A.U. after   25 cycles
 SCF Done:  E(UPBE1PBE) =  -909.526532055     A.U. after   22 cycles
 SCF Done:  E(UPBE1PBE) =  -909.527016610     A.U. after   24 cycles
 SCF Done:  E(UPBE1PBE) =  -909.527410179     A.U. after   22 cycles
 SCF Done:  E(UPBE1PBE) =  -909.528761823     A.U. after   19 cycles
 SCF Done:  E(UPBE1PBE) =  -909.528921552     A.U. after   19 cycles
 SCF Done:  E(UPBE1PBE) =  -909.528934735     A.U. after   18 cycles
 SCF Done:  E(UPBE1PBE) =  -909.528961643     A.U. after   19 cycles
 SCF Done:  E(UPBE1PBE) =  -909.528975587     A.U. after   17 cycles
 SCF Done:  E(UPBE1PBE) =  -909.528978407     A.U. after   18 cycles
 SCF Done:  E(UPBE1PBE) =  -909.528978921     A.U. after   15 cycles
 SCF Done:  E(UPBE1PBE) =  -909.528979501     A.U. after   15 cycles
 SCF Done:  E(UPBE1PBE) =  -909.528979550     A.U. after   14 cycles
 Optimization completed.
    -- Stationary point found.
 Normal termination of Gaussian 16 at Sun Oct 27 23:14:32 2024.

 ----------------------------------------------------------------------
 #N Geom=AllCheck Guess=TCheck SCRF=Check GenChk UPBE1PBE/Aug-CC-pVDZ F
 req
 ----------------------------------------------------------------------

 Structure from the checkpoint file:  "/scr/Gau-57667.chk"
 ----
 blah
 ----
 Charge =  0 Multiplicity = 2

                         Standard orientation:
 ---------------------------------------------------------------------
 Center     Atomic      Atomic             Coordinates (Angstroms)
 Number     Number       Type             X           Y           Z
 ---------------------------------------------------------------------
      1          6           0       -2.722928   -0.559985    0.299619
      2          6           0       -1.296650   -0.745101    0.831043
      3          6           0       -0.495120   -0.727666   -0.473762
      4          8           0       -1.107786   -1.981481    1.496138
      5          1           0       -1.023279    0.107936    1.463778
      6          8           0       -1.141061    0.220187   -1.294647
      7          1           0       -0.573751   -1.740637   -0.912193
      8          6           0        0.957086   -0.392562   -0.341182
      9          6           0       -2.519327    0.374472   -0.888542
     10          1           0       -3.386893   -0.114784    1.056986
     11          8           0       -3.229422   -1.795131   -0.165677
     12          6           0       -2.771217    1.837793   -0.579813
     13          1           0       -3.162573    0.048659   -1.719910
     14          8           0       -2.106470    2.272196    0.581510
     15          1           0       -3.848204    1.983702   -0.411645
     16          1           0       -2.484353    2.433986   -1.463112
     17          1           0       -2.922930   -2.469964    0.454604
     18          1           0       -1.192865   -1.839810    2.442590
     19          1           0       -1.148729    2.201186    0.433643
     20          6           0        1.912654   -1.192317   -0.888628
     21          7           0        3.242815   -0.955840   -0.732432
     22          6           0        3.686883    0.084720    0.076226
     23          7           0        2.700850    0.727937    0.791231
     24          6           0        1.389867    0.847399    0.328062
     25          1           0        1.644550   -2.053668   -1.499930
     26          1           0        3.942067   -1.436388   -1.282146
     27          8           0        4.861667    0.390641    0.160073
     28          8           0        0.686050    1.807911    0.578553
 ---------------------------------------------------------------------

 SCF Done:  E(UPBE1PBE) =  -909.528979550     A.U. after    1 cycles

 The electronic state is 2-A.
 Alpha  occ. eigenvalues --  -19.26427 -19.25320 -19.24544 -19.23805 -19.23321
 Alpha  occ. eigenvalues --  -19.20939 -14.49718 -14.48564 -10.41021 -10.38164
 Alpha  occ. eigenvalues --  -10.34588 -10.31424 -10.30518 -10.29213 -10.29179
 Alpha  occ. eigenvalues --  -10.28704 -10.27369  -1.14792  -1.11502  -1.10774
 Alpha  occ. eigenvalues --   -1.08689  -1.06064  -1.04807  -1.04223  -0.97830
 Alpha  occ. eigenvalues --   -0.87233  -0.80932  -0.79467  -0.72830  -0.71321
 Alpha  occ. eigenvalues --   -0.69300  -0.65460  -0.62221  -0.61444  -0.59903
 Alpha  occ. eigenvalues --   -0.57313  -0.54562  -0.53621  -0.53191  -0.52432
 Alpha  occ. eigenvalues --   -0.51232  -0.50080  -0.49726  -0.49518  -0.47634
 Alpha  occ. eigenvalues --   -0.45747  -0.44782  -0.44312  -0.42374  -0.41661
 Alpha  occ. eigenvalues --   -0.40400  -0.40247  -0.37965  -0.37427  -0.36577
 Alpha  occ. eigenvalues --   -0.35204  -0.34516  -0.33600  -0.32516  -0.31365
 Alpha  occ. eigenvalues --   -0.30238  -0.29568  -0.28634  -0.26893
 Alpha virt. eigenvalues --   -0.07166  -0.02489  -0.02199  -0.01654   0.00511
 Alpha virt. eigenvalues --    0.01053   0.02030   0.02602   0.03010   0.03532
 Alpha virt. eigenvalues --    0.03942   0.04423   0.04979   0.05447   0.05967

  Beta  occ. eigenvalues --  -19.26427 -19.24785 -19.24519 -19.23749 -19.23318
  Beta  occ. eigenvalues --  -19.20940 -14.49694 -14.46952 -10.41168 -10.38223
  Beta  occ. eigenvalues --  -10.34488 -10.31406 -10.30508 -10.29213 -10.29046
  Beta  occ. eigenvalues --  -10.28703 -10.27369  -1.13803  -1.11283  -1.10628
  Beta  occ. eigenvalues --   -1.08656  -1.06053  -1.04333  -1.04077  -0.95029
  Beta  occ. eigenvalues --   -0.86760  -0.80915  -0.79330  -0.72366  -0.70752
  Beta  occ. eigenvalues --   -0.68927  -0.65241  -0.62162  -0.60954  -0.59704
  Beta  occ. eigenvalues --   -0.57204  -0.54393  -0.53493  -0.52354  -0.52020
  Beta  occ. eigenvalues --   -0.51079  -0.49777  -0.49638  -0.48831  -0.47117
  Beta  occ. eigenvalues --   -0.45444  -0.44675  -0.44022  -0.42343  -0.40550
  Beta  occ. eigenvalues --   -0.40208  -0.40080  -0.37444  -0.36474  -0.35467
  Beta  occ. eigenvalues --   -0.34434  -0.32654  -0.32335  -0.31121  -0.30091
  Beta  occ. eigenvalues --   -0.29347  -0.28463  -0.26890
  Beta virt. eigenvalues --   -0.19282  -0.05978  -0.02412  -0.01742  -0.01594
  Beta virt. eigenvalues --    0.00551   0.01069   0.02095   0.02635   0.03064
  Beta virt. eigenvalues --    0.03583   0.03965   0.04589   0.05049   0.05483

 Mulliken charges and spin densities:
               1          2
     1  C    1.116421  -0.001452
     2  C    0.478327   0.010799
     3  C    0.936875  -0.019145
     4  O   -0.665502   0.001518
     5  H   -0.567934   0.002819
     6  O   -0.907640   0.005321
     7  H   -0.654691   0.010150
     8  C    1.363375   0.078343
     9  C    0.908998   0.001234
    10  H   -0.402436   0.000235
    11  O   -0.700456   0.001070
    12  C    0.975401   0.000075
    13  H   -0.451270   0.000796
    14  O   -0.508334   0.000527
    15  H   -0.278697  -0.000014
    16  H   -0.242323   0.000050
    17  H    0.153388  -0.000121
    18  H    0.173501  -0.000303
    19  H    0.237675  -0.000308
    20  C    0.940022   0.073895
    21  N   -0.449954   0.015628
    22  C    0.798406  -0.126808
    23  N   -0.567348   0.833526
    24  C    0.323218  -0.110487
    25  H   -0.671578  -0.002039
    26  H   -0.072249   0.000244
    27  O   -0.547636   0.193870
    28  O   -0.717558   0.030578
 Sum of Mulliken charges =  -0.00000   1.00000

 Dipole moment (field-independent basis, Debye):
    X=              0.4265    Y=             -5.1752    Z=             -1.3854  Tot=              5.3744
 Quadrupole moment (field-independent basis, Debye-Ang):
   XX=           -109.0383   YY=           -102.4752   ZZ=            -91.9760
   XY=            -11.3056   XZ=            -11.7620   YZ=             -3.9980

  Exact polarizability:     219.307      -3.073     142.329       4.401      14.410     115.333
 Approx polarizability:     282.931     -12.856     216.118       3.714      33.442     180.540

                      1                      2                      3
                      A                      A                      A
 Frequencies --     38.1627                55.5672                90.5490
 Red. masses --      9.4821                 6.3414                 6.6208
 Frc consts  --      0.0081                 0.0115                 0.0320
 IR Inten    --      0.4327                 7.9489                 8.6203

                      4                      5                      6
                      A                      A                      A
 Frequencies --     99.1221               131.5463               134.7459
 Red. masses --      6.0442                 9.4928                 5.8531
 Frc consts  --      0.0350                 0.0968                 0.0626
 IR Inten    --      3.2825                 2.1089                 2.7973

                      7                      8                      9
                      A                      A                      A
 Frequencies --    165.1608               166.2675               214.8558
 Red. masses --      8.4337                10.2712                 3.0598
 Frc consts  --      0.1355                 0.1673                 0.0832
 IR Inten    --      8.6382                 4.0430                 1.5488

                     10                     11                     12
                      A                      A                      A
 Frequencies --    240.2956               250.7044               268.5095
 Red. masses --      2.9049                 1.7431                 6.6672
 Frc consts  --      0.0988                 0.0645                 0.2832
 IR Inten    --      5.3849                 5.0881                21.7487

                     13                     14                     15
                      A                      A                      A
 Frequencies --    323.0767               338.8183               345.9055
 Red. masses --      4.2960                 3.0543                 5.1480
 Frc consts  --      0.2642                 0.2066                 0.3629
 IR Inten    --     18.9592                 6.8449                15.6528

                     16                     17                     18
                      A                      A                      A
 Frequencies --    363.5546               405.8556               445.8580
 Red. masses --      4.8510                 4.0886                 8.9470
 Frc consts  --      0.3778                 0.3968                 1.0479
 IR Inten    --      4.7218                 0.4882                18.1114

                     19                     20                     21
                      A                      A                      A
 Frequencies --    457.6412               470.9626               525.2313
 Red. masses --      5.4944                 1.2173                 4.2637
 Frc consts  --      0.6780                 0.1591                 0.6930
 IR Inten    --     13.9525               138.2861                 8.4535

                     22                     23                     24
                      A                      A                      A
 Frequencies --    553.0866               564.0020               597.0713
 Red. masses --      4.7801                 1.8016                 2.4587
 Frc consts  --      0.8615                 0.3377                 0.5164
 IR Inten    --      4.0784                59.8204                21.5186

                     25                     26                     27
                      A                      A                      A
 Frequencies --    642.9880               679.0115               704.3083
 Red. masses --      5.8241                 1.0792                 5.4268
 Frc consts  --      1.4187                 0.2931                 1.5860
 IR Inten    --      1.5479               164.9995                23.3683

                     28                     29                     30
                      A                      A                      A
 Frequencies --    733.7776               761.2245               766.4905
 Red. masses --      9.3760                 6.1052                 7.0718
 Frc consts  --      2.9744                 2.0844                 2.4479
 IR Inten    --     13.6983                13.8572                32.6265

                     31                     32                     33
                      A                      A                      A
 Frequencies --    782.2133               843.3113               892.1581
 Red. masses --      7.7214                 6.0883                 3.2943
 Frc consts  --      2.7835                 2.5511                 1.5449
 IR Inten    --      2.2392                15.3301                38.4664

                     34                     35                     36
                      A                      A                      A
 Frequencies --    903.7200               933.6457               942.1804
 Red. masses --      2.8848                 2.3521                 1.8894
 Frc consts  --      1.3881                 1.2080                 0.9882
 IR Inten    --      3.3330                10.9992                29.2430

                     37                     38                     39
                      A                      A                      A
 Frequencies --    944.4118              1014.2260              1060.1510
 Red. masses --      2.8845                 2.3963                 2.3000
 Frc consts  --      1.5158                 1.4523                 1.5230
 IR Inten    --     39.3622                19.5957                47.6317

                     40                     41                     42
                      A                      A                      A
 Frequencies --   1081.7230              1089.4735              1113.3458
 Red. masses --      1.9715                 5.0232                 4.3666
 Frc consts  --      1.3592                 3.5129                 3.1890
 IR Inten    --     41.8049                44.3723               121.7071

                     43                     44                     45
                      A                      A                      A
 Frequencies --   1120.2737              1154.1818              1162.3028
 Red. masses --      3.0661                 3.7854                 3.2886
 Frc consts  --      2.2672                 2.9711                 2.6176
 IR Inten    --     36.8261                91.6686                58.6404

                     46                     47                     48
                      A                      A                      A
 Frequencies --   1193.9621              1214.3353              1217.8617
 Red. masses --      1.5141                 2.6839                 1.6341
 Frc consts  --      1.2717                 2.3318                 1.4280
 IR Inten    --     29.6566                64.1713                20.0968

                     49                     50                     51
                      A                      A                      A
 Frequencies --   1222.6395              1236.7090              1289.1284
 Red. masses --      1.3447                 1.1861                 1.3040
 Frc consts  --      1.1843                 1.0688                 1.2768
 IR Inten    --     40.4144                20.8320                20.8572

                     52                     53                     54
                      A                      A                      A
 Frequencies --   1291.4499              1305.9974              1319.5617
 Red. masses --      1.6979                 1.4148                 1.5446
 Frc consts  --      1.6684                 1.4218                 1.5846
 IR Inten    --      1.4011                10.0859                 7.8812

                     55                     56                     57
                      A                      A                      A
 Frequencies --   1339.0871              1342.6838              1361.2532
 Red. masses --      2.3799                 1.3651                 1.4938
 Frc consts  --      2.5144                 1.4499                 1.6309
 IR Inten    --     37.8078                14.9901                77.8553

                     58                     59                     60
                      A                      A                      A
 Frequencies --   1376.6442              1393.8060              1419.0519
 Red. masses --      1.4534                 1.4757                 1.7101
 Frc consts  --      1.6228                 1.6891                 2.0289
 IR Inten    --     15.4855                 8.1489                27.5338

                     61                     62                     63
                      A                      A                      A
 Frequencies --   1434.2503              1437.8128              1471.1920
 Red. masses --      1.3719                 1.4627                 1.0892
 Frc consts  --      1.6627                 1.7816                 1.3889
 IR Inten    --     13.3264                 8.1160                 1.3011

                     64                     65                     66
                      A                      A                      A
 Frequencies --   1490.4114              1653.7008              1672.3141
 Red. masses --      2.4629                 8.6217                 6.7530
 Frc consts  --      3.2233                13.8917                11.1272
 IR Inten    --     19.6909               359.4550               450.0154

                     67                     68                     69
                      A                      A                      A
 Frequencies --   1723.8731              2996.6378              3027.2906
 Red. masses --     12.6375                 1.0827                 1.0649
 Frc consts  --     22.1270                 5.7283                 5.7502
 IR Inten    --    481.7113                29.0262                52.4936

                     70                     71                     72
                      A                      A                      A
 Frequencies --   3058.9347              3075.4788              3101.8842
 Red. masses --      1.0863                 1.0870                 1.0993
 Frc consts  --      5.9888                 6.0576                 6.2321
 IR Inten    --     25.2616                33.8514                40.9880

                     73                     74                     75
                      A                      A                      A
 Frequencies --   3120.8062              3225.6881              3649.0033
 Red. masses --      1.0878                 1.0945                 1.0794
 Frc consts  --      6.2419                 6.7097                 8.4680
 IR Inten    --      4.9803                 0.7847               146.9597

                     76                     77                     78
                      A                      A                      A
 Frequencies --   3682.5119              3795.8415              3891.9134
 Red. masses --      1.0679                 1.0653                 1.0670
 Frc consts  --      8.5324                 9.0438                 9.5225
 IR Inten    --    433.0716                53.0028                64.7976

 - Thermochemistry -
 -------------------
 Temperature   298.150 Kelvin.  Pressure   1.00000 Atm.
 Atom     1 has atomic number  6 and mass  12.00000

 Molecular mass:   243.06171 amu.
 Principal axes and moments of inertia in atomic units:
                           1         2         3
     Eigenvalues --  1931.391135914.272596788.54611
           X            0.99991  -0.01296  -0.00432
           Y            0.01292   0.99987  -0.01014
           Z            0.00445   0.01009   0.99994
 This molecule is an asymmetric top.
 Rotational symmetry number  1.
 Warning -- assumption of classical behavior for rotation
           may cause significant error
 Rotational temperatures (Kelvin)      0.04485     0.01464     0.01276
 Rotational constants (GHZ):           0.93443     0.30515     0.26585
 Zero-point vibrational energy     559884.5 (Joules/Mol)
                                  133.81562 (Kcal/Mol)
 Warning -- explicit consideration of  24 degrees of freedom as
           vibrations may cause significant error
 Vibrational temperatures:     54.91    79.95   130.28   142.61   189.27
          (Kelvin)            193.87   237.63   239.22   309.13   345.73
                              360.71   386.33   464.84   487.48   497.68
                              523.07   583.94   641.49   658.44   677.61
                              755.69   795.77   811.47   859.05   925.12
                              976.95  1013.34  1055.74  1095.23  1102.81
                             1125.43  1213.34  1283.62  1300.25  1343.31
                             1355.59  1358.80  1459.24  1525.32  1556.36
                             1567.51  1601.86  1611.82  1660.61  1672.29
                             1717.85  1747.16  1752.23  1759.11  1779.35
                             1854.77  1858.11  1879.04  1898.55  1926.65
                             1931.82  1958.54  1980.68  2005.38  2041.70
                             2063.57  2068.69  2116.72  2144.37  2379.31
                             2406.09  2480.27  4311.49  4355.60  4401.12
                             4424.93  4462.92  4490.14  4641.05  5250.10
                             5298.31  5461.37  5599.60

 Zero-point correction=                           0.213249 (Hartree/Particle)
 Thermal correction to Energy=                    0.228561
 Thermal correction to Enthalpy=                  0.229505
 Thermal correction to Gibbs Free Energy=         0.169918
 Sum of electronic and zero-point Energies=           -909.315731
 Sum of electronic and thermal Energies=              -909.300419
 Sum of electronic and thermal Enthalpies=            -909.299474
 Sum of electronic and thermal Free Energies=         -909.359061

                     E (Thermal)             CV                S
                      KCal/Mol        Cal/Mol-Kelvin    Cal/Mol-Kelvin
 Total                  143.424             58.266            125.411
 Electronic               0.000              0.000              1.377
 Translational            0.889              2.981             42.365
 Rotational               0.889              2.981             32.717
 Vibrational            141.647             52.304             48.951
 Vibration     1          0.594              1.982              5.352
 Vibration     2          0.596              1.975              4.609
 Vibration     3          0.602              1.956              3.648
 Vibration     4          0.604              1.950              3.472
 Vibration     5          0.612              1.922              2.923
 Vibration     6          0.613              1.919              2.877
 Vibration     7          0.624              1.885              2.490
 Vibration     8          0.624              1.884              2.477
 Vibration     9          0.645              1.818              2.002
 Vibration    10          0.657              1.779              1.801
 Vibration    11          0.663              1.762              1.726
 Vibration    12          0.673              1.731              1.606
 Vibration    13          0.708              1.629              1.294
 Vibration    14          0.719              1.598              1.218
 Vibration    15          0.724              1.584              1.185
 Vibration    16          0.737              1.547              1.107
 Vibration    17          0.771              1.457              0.941
 Vibration    18          0.805              1.370              0.808
 Vibration    19          0.816              1.344              0.773
 Vibration    20          0.828              1.314              0.735
 Vibration    21          0.880              1.194              0.598
 Vibration    22          0.908              1.133              0.538
 Vibration    23          0.920              1.109              0.516
 Vibration    24          0.955              1.038              0.455

 Optimization completed.
    -- Stationary point found.
 Normal termination of Gaussian 16 at Sun Oct 27 23:40:56 2024.
