 Gaussian 16, Revision C.01,
 Gaussian 16:  EM64L-G16RevC.01  3-Jul-2019

 ------------------------------------------------------
 # PBE1PBE/aug-cc-pVDZ opt freq EmpiricalDispersion=GD3
 ------------------------------------------------------

 ----
 blah
 ----
 Symbolic Z-matrix:
 Charge =  0 Multiplicity = 1

 SCF Done:  E(RPBE1PBE) =  -910.211691766     A.U. after   14 cycles
 SCF Done:  E(RPBE1PBE) =  -910.228714647     A.U. after   13 cycles
 SCF Done:  E(RPBE1PBE) =  -910.220916775     A.U. after   15 cycles
 SCF Done:  E(RPBE1PBE) =  -910.225938920     A.U. after   13 cycles
 SCF Done:  E(RPBE1PBE) =  -910.229219670     A.U. after   10 cycles
 SCF Done:  E(RPBE1PBE) =  -910.230063714     A.U. after   12 cycles
 SCF Done:  E(RPBE1PBE) =  -910.230401964     A.U. after   11 cycles
 SCF Done:  E(RPBE1PBE) =  -910.230532615     A.U. after   11 cycles
 SCF Done:  E(RPBE1PBE) =  -910.230584638     A.U. after   12 cycles
 SCF Done:  E(RPBE1PBE) =  -910.230685588     A.U. after   11 cycles
 SCF Done:  E(RPBE1PBE) =  -910.230880008     A.U. after   12 cycles
 SCF Done:  E(RPBE1PBE) =  -910.230961316     A.U. after   11 cycles
 SCF Done:  E(RPBE1PBE) =  -910.231023896     A.U. after   11 cycles
 SCF Done:  E(RPBE1PBE) =  -910.231060952     A.U. after   12 cycles
 SCF Done:  E(RPBE1PBE) =  -910.231078809     A.U. after   11 cycles
 SCF Done:  E(RPBE1PBE) =  -910.231080912     A.U. after   10 cycles
 SCF Done:  E(RPBE1PBE) =  -910.231082697     A.U. after   10 cycles
 Optimization completed.
    -- Stationary point found.
 Normal termination of Gaussian 16 at Thu Oct 24 12:32:24 2024.

 ----------------------------------------------------------------------
 #N Geom=AllCheck Guess=TCheck SCRF=Check GenChk RPBE1PBE/Aug-CC-pVDZ F
 req
 ----------------------------------------------------------------------

 Structure from the checkpoint file:  "/scr/Gau-12712.chk"
 ----
 blah
 ----
 Charge =  0 Multiplicity = 1

                         Standard orientation:
 ---------------------------------------------------------------------
 Center     Atomic      Atomic             Coordinates (Angstroms)
 Number     Number       Type             X           Y           Z
 ---------------------------------------------------------------------
      1          6           0       -2.775348   -0.537695    0.263759
      2          6           0       -1.362814   -0.762981    0.816055
      3          6           0       -0.535066   -0.735799   -0.471061
      4          8           0       -1.210827   -2.020310    1.455056
      5          1           0       -1.080836    0.066623    1.474685
      6          8           0       -1.147392    0.246516   -1.282683
      7          1           0       -0.630610   -1.736686   -0.932056
      8          6           0        0.919285   -0.431215   -0.307265
      9          6           0       -2.529166    0.415363   -0.902328
     10          1           0       -3.444684   -0.092150    1.016235
     11          8           0       -3.301051   -1.753304   -0.232537
     12          6           0       -2.760238    1.876567   -0.566163
     13          1           0       -3.164322    0.119536   -1.751115
     14          8           0       -2.118285    2.272692    0.621873
     15          1           0       -3.838081    2.041755   -0.422606
     16          1           0       -2.437637    2.485920   -1.428207
     17          1           0       -2.996379   -2.447979    0.366526
     18          1           0       -1.343457   -1.903202    2.399383
     19          1           0       -1.159486    2.153894    0.511994
     20          6           0        1.864038   -1.317845   -0.700586
     21          7           0        3.203633   -1.089759   -0.557934
     22          6           0        3.725969    0.070795   -0.016342
     23          7           0        2.751298    0.966915    0.368757
     24          6           0        1.367038    0.825912    0.282207
     25          1           0        1.594242   -2.271197   -1.153215
     26          1           0        3.886439   -1.770370   -0.858045
     27          1           0        3.087515    1.832884    0.773656
     28          8           0        4.917534    0.270097    0.103618
     29          8           0        0.655093    1.729591    0.701842
 ---------------------------------------------------------------------

 SCF Done:  E(RPBE1PBE) =  -910.231082697     A.U. after    1 cycles

 The electronic state is 1-A.
 Alpha  occ. eigenvalues --  -19.25960 -19.23739 -19.22792 -19.22778 -19.22428
 Alpha  occ. eigenvalues --  -19.20499 -14.48826 -14.47319 -10.40357 -10.37668
 Alpha  occ. eigenvalues --  -10.33235 -10.30505 -10.29753 -10.28644 -10.28124
 Alpha  occ. eigenvalues --  -10.27460 -10.26925  -1.13439  -1.10670  -1.10083
 Alpha  occ. eigenvalues --   -1.08016  -1.05487  -1.03807  -1.03304  -0.98013
 Alpha  occ. eigenvalues --   -0.86509  -0.80281  -0.78834  -0.73440  -0.71123
 Alpha  occ. eigenvalues --   -0.69593  -0.65248  -0.61790  -0.61328  -0.59417
 Alpha  occ. eigenvalues --   -0.56739  -0.55614  -0.53654  -0.52918  -0.51998
 Alpha  occ. eigenvalues --   -0.51604  -0.50223  -0.49088  -0.48941  -0.47353
 Alpha  occ. eigenvalues --   -0.45540  -0.44777  -0.43988  -0.43708  -0.41842
 Alpha  occ. eigenvalues --   -0.40168  -0.39775  -0.39496  -0.36964  -0.35910
 Alpha  occ. eigenvalues --   -0.34316  -0.33253  -0.32372  -0.31786  -0.30676
 Alpha  occ. eigenvalues --   -0.29668  -0.28966  -0.27652  -0.26293
 Alpha virt. eigenvalues --   -0.06302  -0.02073  -0.01479  -0.01162   0.00366
 Alpha virt. eigenvalues --    0.01142   0.01908   0.02663   0.03107   0.03439
 Alpha virt. eigenvalues --    0.03939   0.04455   0.04820   0.05533   0.05800

 Mulliken charges:
               1
     1  C    1.144150
     2  C    0.483667
     3  C    1.257006
     4  O   -0.674385
     5  H   -0.588681
     6  O   -0.920792
     7  H   -0.716852
     8  C    0.999486
     9  C    0.891815
    10  H   -0.406480
    11  O   -0.703113
    12  C    1.006116
    13  H   -0.458692
    14  O   -0.502784
    15  H   -0.281999
    16  H   -0.250253
    17  H    0.151073
    18  H    0.171152
    19  H    0.242086
    20  C    1.219907
    21  N   -0.506087
    22  C    0.687145
    23  N   -0.400264
    24  C    0.433139
    25  H   -0.730475
    26  H   -0.064977
    27  H   -0.065593
    28  O   -0.577618
    29  O   -0.837695
 Sum of Mulliken charges =  -0.00000

 Dipole moment (field-independent basis, Debye):
    X=              1.1968    Y=             -3.9026    Z=              0.2212  Tot=              4.0879
 Quadrupole moment (field-independent basis, Debye-Ang):
   XX=           -112.5361   YY=            -98.3549   ZZ=            -93.9996
   XY=             -6.0264   XZ=             -5.8532   YZ=             -3.0084

  Exact polarizability:     190.629      -9.342     138.962      -0.231       7.780     108.288
 Approx polarizability:     243.818     -20.980     207.040      -5.087      20.714     165.668

                      1                      2                      3
                      A                      A                      A
 Frequencies --     47.1364                62.5310                91.6317
 Red. masses --      8.0401                 5.7624                 6.6646
 Frc consts  --      0.0105                 0.0133                 0.0330
 IR Inten    --      0.3198                 2.4749                 8.5763

                      4                      5                      6
                      A                      A                      A
 Frequencies --    110.3109               147.9088               155.4034
 Red. masses --      6.0760                 6.6117                 6.9402
 Frc consts  --      0.0436                 0.0852                 0.0988
 IR Inten    --      3.9410                 1.6233                 4.6965

                      7                      8                      9
                      A                      A                      A
 Frequencies --    162.2573               171.7480               215.2949
 Red. masses --      9.2814                 9.3409                 3.3360
 Frc consts  --      0.1440                 0.1623                 0.0911
 IR Inten    --      2.7876                 2.1956                 0.5571

                     10                     11                     12
                      A                      A                      A
 Frequencies --    243.1965               258.0968               274.1340
 Red. masses --      3.0975                 1.7502                 4.4434
 Frc consts  --      0.1079                 0.0687                 0.1967
 IR Inten    --      5.1478                 5.1821                30.1648

                     13                     14                     15
                      A                      A                      A
 Frequencies --    339.5167               343.4481               348.0755
 Red. masses --      3.0351                 3.9527                 5.2105
 Frc consts  --      0.2061                 0.2747                 0.3719
 IR Inten    --      6.3196                20.0070                 6.5805

                     16                     17                     18
                      A                      A                      A
 Frequencies --    398.7018               414.4755               458.0725
 Red. masses --      9.8243                 3.1605                 4.2211
 Frc consts  --      0.9201                 0.3199                 0.5218
 IR Inten    --     24.3690                 8.1856                15.3530

                     19                     20                     21
                      A                      A                      A
 Frequencies --    475.0799               534.4131               555.2111
 Red. masses --      1.1790                 5.1173                 5.7823
 Frc consts  --      0.1568                 0.8611                 1.0502
 IR Inten    --    129.7181                55.7250                 1.7449

                     22                     23                     24
                      A                      A                      A
 Frequencies --    568.6314               602.4125               607.4016
 Red. masses --      8.7359                 1.1803                 4.8215
 Frc consts  --      1.6642                 0.2524                 1.0481
 IR Inten    --      7.4070                55.1305                10.6410

                     25                     26                     27
                      A                      A                      A
 Frequencies --    648.6594               690.6849               708.3578
 Red. masses --      4.9380                 1.0800                 1.2167
 Frc consts  --      1.2241                 0.3035                 0.3597
 IR Inten    --      1.1997               152.9491                58.5331

                     28                     29                     30
                      A                      A                      A
 Frequencies --    718.3954               759.6780               770.8821
 Red. masses --      4.6122                 6.2404                 7.8198
 Frc consts  --      1.4025                 2.1219                 2.7379
 IR Inten    --      2.9904                17.9495                37.1364

                     31                     32                     33
                      A                      A                      A
 Frequencies --    779.7165               810.0378               872.3524
 Red. masses --      6.6407                 8.4023                 3.9796
 Frc consts  --      2.3787                 3.2483                 1.7843
 IR Inten    --      5.7576                21.2930                 2.6108

                     34                     35                     36
                      A                      A                      A
 Frequencies --    895.7124               924.0980               937.8903
 Red. masses --      3.1700                 2.5306                 2.0881
 Frc consts  --      1.4985                 1.2732                 1.0822
 IR Inten    --     40.9014                13.4617                 9.9177

                     37                     38                     39
                      A                      A                      A
 Frequencies --    947.3412               997.6813              1016.9052
 Red. masses --      1.6867                 3.0115                 2.4042
 Frc consts  --      0.8919                 1.7661                 1.4648
 IR Inten    --     19.8444                 8.6565                24.0646

                     40                     41                     42
                      A                      A                      A
 Frequencies --   1062.6850              1084.3733              1104.5107
 Red. masses --      2.2435                 2.0328                 4.4252
 Frc consts  --      1.4928                 1.4083                 3.1807
 IR Inten    --     41.8745                30.0278               117.4701

                     43                     44                     45
                      A                      A                      A
 Frequencies --   1120.8703              1153.0513              1160.6682
 Red. masses --      3.0091                 3.9086                 3.2091
 Frc consts  --      2.2274                 3.0617                 2.5471
 IR Inten    --     47.4784                79.6764                69.5932

                     46                     47                     48
                      A                      A                      A
 Frequencies --   1179.2869              1217.7485              1224.3699
 Red. masses --      2.1801                 1.4052                 1.3663
 Frc consts  --      1.7863                 1.2277                 1.2068
 IR Inten    --     11.5328                65.5956                 9.2567

                     49                     50                     51
                      A                      A                      A
 Frequencies --   1229.4258              1237.6757              1274.7583
 Red. masses --      1.6066                 1.1493                 1.8692
 Frc consts  --      1.4307                 1.0373                 1.7896
 IR Inten    --    124.8998                16.3846                 0.8473

                     52                     53                     54
                      A                      A                      A
 Frequencies --   1292.0255              1308.9419              1320.4543
 Red. masses --      1.3132                 1.2570                 1.5158
 Frc consts  --      1.2916                 1.2689                 1.5572
 IR Inten    --     17.3361                 1.5397                 4.8981

                     55                     56                     57
                      A                      A                      A
 Frequencies --   1345.1418              1353.2633              1366.5874
 Red. masses --      1.3740                 1.8126                 1.7635
 Frc consts  --      1.4648                 1.9557                 1.9404
 IR Inten    --      9.0701                45.4689                29.1606

                     58                     59                     60
                      A                      A                      A
 Frequencies --   1378.1654              1400.0573              1409.5421
 Red. masses --      1.5464                 1.5187                 1.7734
 Frc consts  --      1.7305                 1.7539                 2.0760
 IR Inten    --      2.6856                 1.0467                 0.8631

                     61                     62                     63
                      A                      A                      A
 Frequencies --   1422.1796              1436.9575              1440.7735
 Red. masses --      1.6535                 1.3409                 1.7892
 Frc consts  --      1.9705                 1.6313                 2.1882
 IR Inten    --     17.2106                12.6659                25.9113

                     64                     65                     66
                      A                      A                      A
 Frequencies --   1453.6466              1471.8551              1530.1156
 Red. masses --      2.5703                 1.0911                 4.0586
 Frc consts  --      3.2000                 1.3927                 5.5985
 IR Inten    --     71.3219                 2.4367               169.4696

                     67                     68                     69
                      A                      A                      A
 Frequencies --   1716.9517              1763.8359              1836.0789
 Red. masses --      6.9327                 8.7216                 8.2551
 Frc consts  --     12.0412                15.9868                16.3966
 IR Inten    --     31.4643               755.1987               891.6957

                     70                     71                     72
                      A                      A                      A
 Frequencies --   3001.6527              3024.0692              3057.6581
 Red. masses --      1.0832                 1.0652                 1.0863
 Frc consts  --      5.7502                 5.7395                 5.9838
 IR Inten    --     32.4021                54.9020                27.4865

                     73                     74                     75
                      A                      A                      A
 Frequencies --   3073.1353              3099.9643              3127.4177
 Red. masses --      1.0870                 1.0988                 1.0877
 Frc consts  --      6.0485                 6.2215                 6.2681
 IR Inten    --     39.4275                44.0532                 5.4173

                     76                     77                     78
                      A                      A                      A
 Frequencies --   3227.6872              3626.1874              3666.9155
 Red. masses --      1.0946                 1.0779                 1.0744
 Frc consts  --      6.7190                 8.3507                 8.5118
 IR Inten    --      1.4049                81.4374               489.5739

                     79                     80                     81
                      A                      A                      A
 Frequencies --   3669.6865              3792.6480              3891.5841
 Red. masses --      1.0728                 1.0653                 1.0670
 Frc consts  --      8.5122                 9.0284                 9.5203
 IR Inten    --    156.7507                54.5758                61.3557

 - Thermochemistry -
 -------------------
 Temperature   298.150 Kelvin.  Pressure   1.00000 Atm.
 Atom     1 has atomic number  6 and mass  12.00000

 Molecular mass:   244.06954 amu.
 Principal axes and moments of inertia in atomic units:
                           1         2         3
     Eigenvalues --  1934.924775991.224986976.67339
           X            0.99996  -0.00899  -0.00105
           Y            0.00898   0.99994  -0.00646
           Z            0.00111   0.00645   0.99998
 This molecule is an asymmetric top.
 Rotational symmetry number  1.
 Warning -- assumption of classical behavior for rotation
           may cause significant error
 Rotational temperatures (Kelvin)      0.04476     0.01446     0.01241
 Rotational constants (GHZ):           0.93272     0.30123     0.25868
 Zero-point vibrational energy     601829.8 (Joules/Mol)
                                  143.84077 (Kcal/Mol)
 Warning -- explicit consideration of  24 degrees of freedom as
           vibrations may cause significant error
 Vibrational temperatures:     67.82    89.97   131.84   158.71   212.81
          (Kelvin)            223.59   233.45   247.11   309.76   349.91
                              371.34   394.42   488.49   494.15   500.80
                              573.64   596.34   659.06   683.53   768.90
                              798.82   818.13   866.74   873.92   933.28
                              993.74  1019.17  1033.61  1093.01  1109.13
                             1121.84  1165.46  1255.12  1288.73  1329.57
                             1349.41  1363.01  1435.44  1463.10  1528.97
                             1560.17  1589.14  1612.68  1658.98  1669.94
                             1696.73  1752.07  1761.60  1768.87  1780.74
                             1834.09  1858.94  1883.28  1899.84  1935.36
                             1947.04  1966.21  1982.87  2014.37  2028.02
                             2046.20  2067.46  2072.95  2091.47  2117.67
                             2201.50  2470.31  2537.77  2641.71  4318.71
                             4350.96  4399.29  4421.56  4460.16  4499.66
                             4643.92  5217.27  5275.87  5279.86  5456.77
                             5599.12

 Zero-point correction=                           0.229225 (Hartree/Particle)
 Thermal correction to Energy=                    0.244223
 Thermal correction to Enthalpy=                  0.245167
 Thermal correction to Gibbs Free Energy=         0.187226
 Sum of electronic and zero-point Energies=           -910.001858
 Sum of electronic and thermal Energies=              -909.986860
 Sum of electronic and thermal Enthalpies=            -909.985916
 Sum of electronic and thermal Free Energies=         -910.043857

                     E (Thermal)             CV                S
                      KCal/Mol        Cal/Mol-Kelvin    Cal/Mol-Kelvin
 Total                  153.252             57.951            121.947
 Electronic               0.000              0.000              0.000
 Translational            0.889              2.981             42.378
 Rotational               0.889              2.981             32.758
 Vibrational            151.475             51.989             46.811
 Vibration     1          0.595              1.979              4.934
 Vibration     2          0.597              1.972              4.376
 Vibration     3          0.602              1.955              3.625
 Vibration     4          0.606              1.941              3.263
 Vibration     5          0.617              1.905              2.699
 Vibration     6          0.620              1.897              2.605
 Vibration     7          0.622              1.889              2.523
 Vibration     8          0.626              1.877              2.416
 Vibration     9          0.645              1.818              1.998
 Vibration    10          0.659              1.774              1.779
 Vibration    11          0.667              1.749              1.675
 Vibration    12          0.676              1.721              1.570
 Vibration    13          0.719              1.597              1.214
 Vibration    14          0.722              1.589              1.196
 Vibration    15          0.726              1.579              1.175
 Vibration    16          0.765              1.473              0.967
 Vibration    17          0.778              1.439              0.911
 Vibration    18          0.816              1.343              0.772
 Vibration    19          0.832              1.305              0.723
 Vibration    20          0.889              1.174              0.577
 Vibration    21          0.911              1.128              0.533
 Vibration    22          0.925              1.099              0.507
 Vibration    23          0.961              1.027              0.446
 Vibration    24          0.966              1.016              0.437

                           ! Non-Optimized Parameters !
 Normal termination of Gaussian 16 at Thu Oct 24 12:48:26 2024.
