 Gaussian 16, Revision C.01,
 Gaussian 16:  EM64L-G16RevC.01  3-Jul-2019

 ------------------------------------------------------
 # PBE1PBE/aug-cc-pVDZ opt freq EmpiricalDispersion=GD3
 ------------------------------------------------------

 ----
 blah
 ----
 Symbolic Z-matrix:
 Charge = -1 Multiplicity = 1

 SCF Done:  E(RPBE1PBE) =  -909.670311101     A.U. after   15 cycles
 SCF Done:  E(RPBE1PBE) =  -909.654475842     A.U. after   15 cycles
 SCF Done:  E(RPBE1PBE) =  -909.682844914     A.U. after   12 cycles
 SCF Done:  E(RPBE1PBE) =  -909.683965551     A.U. after   13 cycles
 SCF Done:  E(RPBE1PBE) =  -909.683404945     A.U. after   13 cycles
 SCF Done:  E(RPBE1PBE) =  -909.683621396     A.U. after   13 cycles
 SCF Done:  E(RPBE1PBE) =  -909.684352003     A.U. after    9 cycles
 SCF Done:  E(RPBE1PBE) =  -909.684633986     A.U. after   12 cycles
 SCF Done:  E(RPBE1PBE) =  -909.684678410     A.U. after   11 cycles
 SCF Done:  E(RPBE1PBE) =  -909.684701502     A.U. after   10 cycles
 SCF Done:  E(RPBE1PBE) =  -909.671507779     A.U. after   15 cycles
 SCF Done:  E(RPBE1PBE) =  -909.686126340     A.U. after   13 cycles
 SCF Done:  E(RPBE1PBE) =  -909.685816358     A.U. after   13 cycles
 SCF Done:  E(RPBE1PBE) =  -909.686373413     A.U. after   13 cycles
 SCF Done:  E(RPBE1PBE) =  -909.686356027     A.U. after   12 cycles
 SCF Done:  E(RPBE1PBE) =  -909.686589328     A.U. after   12 cycles
 SCF Done:  E(RPBE1PBE) =  -909.686598529     A.U. after   10 cycles
 SCF Done:  E(RPBE1PBE) =  -909.686600167     A.U. after    9 cycles
 SCF Done:  E(RPBE1PBE) =  -909.686600371     A.U. after    8 cycles
 Optimization completed.
    -- Stationary point found.
 Normal termination of Gaussian 16 at Sun Oct 27 01:00:47 2024.

 ----------------------------------------------------------------------
 #N Geom=AllCheck Guess=TCheck SCRF=Check GenChk RPBE1PBE/Aug-CC-pVDZ F
 req
 ----------------------------------------------------------------------

 Structure from the checkpoint file:  "/scr/Gau-19759.chk"
 ----
 blah
 ----
 Charge = -1 Multiplicity = 1

                         Standard orientation:
 ---------------------------------------------------------------------
 Center     Atomic      Atomic             Coordinates (Angstroms)
 Number     Number       Type             X           Y           Z
 ---------------------------------------------------------------------
      1          6           0       -2.731757   -0.534992    0.306249
      2          6           0       -1.309812   -0.740361    0.809916
      3          6           0       -0.502078   -0.734786   -0.493597
      4          8           0       -1.213747   -1.973445    1.513338
      5          1           0       -1.010773    0.102724    1.442837
      6          8           0       -1.175640    0.191606   -1.339667
      7          1           0       -0.587531   -1.752600   -0.925465
      8          6           0        0.943111   -0.406705   -0.335485
      9          6           0       -2.515875    0.404452   -0.879551
     10          1           0       -3.380676   -0.080165    1.070168
     11          8           0       -3.285026   -1.764187   -0.148356
     12          6           0       -2.690613    1.877803   -0.542547
     13          1           0       -3.214782    0.126580   -1.686636
     14          8           0       -2.012667    2.277298    0.613161
     15          1           0       -3.764472    2.075057   -0.382935
     16          1           0       -2.373462    2.457401   -1.430722
     17          1           0       -2.877846   -2.448662    0.399046
     18          1           0       -0.275329   -2.154467    1.633163
     19          1           0       -1.046150    2.073162    0.521170
     20          6           0        1.885945   -1.285005   -0.758191
     21          7           0        3.202758   -1.020778   -0.587002
     22          6           0        3.666349    0.164914    0.043307
     23          7           0        2.746664    1.056287    0.453705
     24          6           0        1.418936    0.850141    0.290595
     25          1           0        1.628262   -2.225098   -1.251538
     26          1           0        3.920627   -1.660583   -0.890130
     27          8           0        4.893617    0.271232    0.157852
     28          8           0        0.587331    1.705661    0.677415
 ---------------------------------------------------------------------

 SCF Done:  E(RPBE1PBE) =  -909.686600371     A.U. after    1 cycles

 The electronic state is 1-A.
 Alpha  occ. eigenvalues --  -19.14546 -19.12629 -19.11822 -19.08269 -19.04258
 Alpha  occ. eigenvalues --  -19.03806 -14.31972 -14.22386 -10.20983 -10.18722
 Alpha  occ. eigenvalues --  -10.18029 -10.17793 -10.17677 -10.17584 -10.17243
 Alpha  occ. eigenvalues --  -10.16161 -10.11737  -0.98927  -0.96267  -0.94797
 Alpha  occ. eigenvalues --   -0.93685  -0.91791  -0.90436  -0.85265  -0.76333
 Alpha  occ. eigenvalues --   -0.71193  -0.69127  -0.65261  -0.57965  -0.54124
 Alpha  occ. eigenvalues --   -0.52379  -0.51195  -0.49506  -0.45707  -0.44940
 Alpha  occ. eigenvalues --   -0.42943  -0.41595  -0.40541  -0.39462  -0.37152
 Alpha  occ. eigenvalues --   -0.35959  -0.35221  -0.33462  -0.32832  -0.32092
 Alpha  occ. eigenvalues --   -0.30589  -0.30229  -0.29689  -0.28575  -0.27739
 Alpha  occ. eigenvalues --   -0.27068  -0.25813  -0.23532  -0.22665  -0.21723
 Alpha  occ. eigenvalues --   -0.20148  -0.19197  -0.17487  -0.15362  -0.14664
 Alpha  occ. eigenvalues --   -0.13070  -0.11985  -0.11667  -0.11008
 Alpha virt. eigenvalues --    0.07395   0.08681   0.08941   0.09976   0.10385
 Alpha virt. eigenvalues --    0.10742   0.11536   0.12213   0.12372   0.13521
 Alpha virt. eigenvalues --    0.14349   0.14833   0.15216   0.15397   0.15876

 Mulliken charges:
               1
     1  C    1.155916
     2  C    0.665192
     3  C    1.070013
     4  O   -0.707914
     5  H   -0.576012
     6  O   -0.902426
     7  H   -0.744498
     8  C    0.978647
     9  C    0.819927
    10  H   -0.360039
    11  O   -0.737242
    12  C    1.003312
    13  H   -0.467602
    14  O   -0.542980
    15  H   -0.298787
    16  H   -0.258069
    17  H    0.158651
    18  H    0.135716
    19  H    0.325452
    20  C    1.131654
    21  N   -0.555584
    22  C    0.680003
    23  N   -0.639247
    24  C    0.201304
    25  H   -0.724098
    26  H   -0.122403
    27  O   -0.735441
    28  O   -0.953445
 Sum of Mulliken charges =  -1.00000

 Dipole moment (field-independent basis, Debye):
    X=             -6.2662    Y=             -7.2806    Z=             -2.4548  Tot=              9.9146
 Quadrupole moment (field-independent basis, Debye-Ang):
   XX=           -164.1923   YY=           -114.2208   ZZ=           -106.4638
   XY=            -18.1213   XZ=             -6.3544   YZ=             -5.2900

  Exact polarizability:     210.150     -10.907     148.126       0.377       8.399     115.328
 Approx polarizability:     272.960     -24.107     216.683      -4.925      19.556     175.415

                      1                      2                      3
                      A                      A                      A
 Frequencies --     48.7534                64.3174                98.4495
 Red. masses --      8.6397                 6.4163                 6.3618
 Frc consts  --      0.0121                 0.0156                 0.0363
 IR Inten    --      1.7306                 7.2371                 6.6041

                      4                      5                      6
                      A                      A                      A
 Frequencies --    112.2482               148.4364               169.8835
 Red. masses --      6.4595                 6.5338                10.5207
 Frc consts  --      0.0480                 0.0848                 0.1789
 IR Inten    --      1.4507                 7.2611                 4.1418

                      7                      8                      9
                      A                      A                      A
 Frequencies --    175.3831               196.7414               217.4358
 Red. masses --      6.9298                11.8178                 2.2154
 Frc consts  --      0.1256                 0.2695                 0.0617
 IR Inten    --      6.1811                 0.1063                17.0926

                     10                     11                     12
                      A                      A                      A
 Frequencies --    245.5797               267.2478               283.0551
 Red. masses --      3.8568                 4.2465                 2.1183
 Frc consts  --      0.1370                 0.1787                 0.1000
 IR Inten    --     37.0479                 3.4532                43.9560

                     13                     14                     15
                      A                      A                      A
 Frequencies --    332.9736               340.5767               353.0602
 Red. masses --      3.5733                 3.0220                 4.9060
 Frc consts  --      0.2334                 0.2065                 0.3603
 IR Inten    --     16.4787                 6.3208                20.2046

                     16                     17                     18
                      A                      A                      A
 Frequencies --    400.6875               425.2903               428.1074
 Red. masses --      2.5878                 7.6201                 1.4181
 Frc consts  --      0.2448                 0.8120                 0.1531
 IR Inten    --     23.1795                 7.4872                52.7417

                     19                     20                     21
                      A                      A                      A
 Frequencies --    458.9478               543.7693               570.3344
 Red. masses --      4.1311                 5.1343                 6.8517
 Frc consts  --      0.5127                 0.8945                 1.3131
 IR Inten    --      8.0910                27.5850                25.2301

                     22                     23                     24
                      A                      A                      A
 Frequencies --    575.4253               588.4955               603.2478
 Red. masses --      8.3108                 1.2046                 6.2327
 Frc consts  --      1.6213                 0.2458                 1.3363
 IR Inten    --      1.6644                64.4144                16.3301

                     25                     26                     27
                      A                      A                      A
 Frequencies --    652.0053               715.0647               762.5430
 Red. masses --      5.3901                 5.2068                 6.7067
 Frc consts  --      1.3501                 1.5686                 2.2977
 IR Inten    --      5.7935                 5.2710                 8.7011

                     28                     29                     30
                      A                      A                      A
 Frequencies --    772.8720               790.2811               819.5956
 Red. masses --      6.1141                12.3450                 8.9433
 Frc consts  --      2.1518                 4.5426                 3.5395
 IR Inten    --      9.3692                11.0144                11.2529

                     31                     32                     33
                      A                      A                      A
 Frequencies --    869.4928               890.2609               898.7785
 Red. masses --      4.3679                 1.5030                 1.6988
 Frc consts  --      1.9456                 0.7019                 0.8085
 IR Inten    --      4.0436               104.5870                54.5574

                     34                     35                     36
                      A                      A                      A
 Frequencies --    914.1535               931.3014               945.3918
 Red. masses --      1.8529                 2.1308                 2.3797
 Frc consts  --      0.9123                 1.0889                 1.2532
 IR Inten    --     14.4421                17.9725                15.7864

                     37                     38                     39
                      A                      A                      A
 Frequencies --    970.4945              1016.2627              1059.6114
 Red. masses --      4.6751                 2.2003                 2.9223
 Frc consts  --      2.5943                 1.3389                 1.9332
 IR Inten    --     15.7568                20.7346                80.5714

                     40                     41                     42
                      A                      A                      A
 Frequencies --   1093.4059              1101.4363              1128.9583
 Red. masses --      4.0136                 2.6584                 3.3511
 Frc consts  --      2.8271                 1.9001                 2.5165
 IR Inten    --     17.2104                71.1107                75.3311

                     43                     44                     45
                      A                      A                      A
 Frequencies --   1129.7244              1170.0133              1171.6294
 Red. masses --      2.8531                 1.5908                 3.0894
 Frc consts  --      2.1454                 1.2831                 2.4986
 IR Inten    --    132.5747                31.9548                90.1886

                     46                     47                     48
                      A                      A                      A
 Frequencies --   1212.6969              1243.3166              1249.5503
 Red. masses --      1.2913                 1.2054                 1.6879
 Frc consts  --      1.1189                 1.0979                 1.5527
 IR Inten    --     43.4314                36.4738                 3.8824

                     49                     50                     51
                      A                      A                      A
 Frequencies --   1260.6352              1273.8336              1304.6921
 Red. masses --      1.2064                 1.5212                 1.3305
 Frc consts  --      1.1296                 1.4543                 1.3344
 IR Inten    --     14.8382                41.2509                 3.5054

                     52                     53                     54
                      A                      A                      A
 Frequencies --   1305.6578              1334.9705              1342.4163
 Red. masses --      1.7052                 1.6687                 3.4139
 Frc consts  --      1.7128                 1.7522                 3.6247
 IR Inten    --     59.2600                48.0848                56.5152

                     55                     56                     57
                      A                      A                      A
 Frequencies --   1350.3448              1369.2781              1374.7397
 Red. masses --      1.6361                 1.4397                 1.3995
 Frc consts  --      1.7578                 1.5904                 1.5583
 IR Inten    --      5.9674                66.9445                14.4222

                     58                     59                     60
                      A                      A                      A
 Frequencies --   1381.3430              1412.4469              1422.1957
 Red. masses --      2.7674                 1.6652                 1.7566
 Frc consts  --      3.1111                 1.9573                 2.0933
 IR Inten    --     53.1785                39.3396                16.6938

                     61                     62                     63
                      A                      A                      A
 Frequencies --   1427.5356              1465.6198              1485.6413
 Red. masses --      1.8119                 1.0858                 1.1815
 Frc consts  --      2.1754                 1.3742                 1.5364
 IR Inten    --     16.7064                 3.3546                62.3988

                     64                     65                     66
                      A                      A                      A
 Frequencies --   1506.3045              1605.0020              1719.7558
 Red. masses --      4.4459                 8.8120                 7.0029
 Frc consts  --      5.9434                13.3745                12.2028
 IR Inten    --     72.0235               963.4494               150.6265

                     67                     68                     69
                      A                      A                      A
 Frequencies --   1742.0417              2960.7638              2983.2366
 Red. masses --      9.2230                 1.0823                 1.0635
 Frc consts  --     16.4907                 5.5901                 5.5764
 IR Inten    --   1091.6734                64.8835               114.9875

                     70                     71                     72
                      A                      A                      A
 Frequencies --   3036.1046              3048.8884              3062.1937
 Red. masses --      1.0883                 1.0950                 1.0872
 Frc consts  --      5.9105                 5.9974                 6.0063
 IR Inten    --     56.4451               115.4794                73.6315

                     73                     74                     75
                      A                      A                      A
 Frequencies --   3131.1629              3177.1790              3281.1314
 Red. masses --      1.0871                 1.0930                 1.0742
 Frc consts  --      6.2798                 6.5008                 6.8135
 IR Inten    --      1.7441                21.8289              1279.2427

                     76                     77                     78
                      A                      A                      A
 Frequencies --   3671.3445              3791.0464              3846.6130
 Red. masses --      1.0786                 1.0654                 1.0663
 Frc consts  --      8.5656                 9.0217                 9.2959
 IR Inten    --     44.9962                56.1115                41.6458

 - Thermochemistry -
 -------------------
 Temperature   298.150 Kelvin.  Pressure   1.00000 Atm.
 Atom     1 has atomic number  6 and mass  12.00000

 Molecular mass:   243.06171 amu.
 Principal axes and moments of inertia in atomic units:
                           1         2         3
     Eigenvalues --  1917.717725864.044276811.59457
           X            0.99988  -0.01555  -0.00126
           Y            0.01554   0.99985  -0.00730
           Z            0.00137   0.00728   0.99997
 This molecule is an asymmetric top.
 Rotational symmetry number  1.
 Warning -- assumption of classical behavior for rotation
           may cause significant error
 Rotational temperatures (Kelvin)      0.04517     0.01477     0.01272
 Rotational constants (GHZ):           0.94109     0.30776     0.26495
 Zero-point vibrational energy     563629.0 (Joules/Mol)
                                  134.71056 (Kcal/Mol)
 Warning -- explicit consideration of  24 degrees of freedom as
           vibrations may cause significant error
 Vibrational temperatures:     70.15    92.54   141.65   161.50   213.57
          (Kelvin)            244.42   252.34   283.07   312.84   353.33
                              384.51   407.25   479.07   490.01   507.97
                              576.50   611.90   615.95   660.32   782.36
                              820.58   827.91   846.71   867.94   938.09
                             1028.82  1097.13  1111.99  1137.04  1179.22
                             1251.01  1280.89  1293.14  1315.26  1339.93
                             1360.21  1396.33  1462.18  1524.54  1573.17
                             1584.72  1624.32  1625.42  1683.39  1685.71
                             1744.80  1788.86  1797.82  1813.77  1832.76
                             1877.16  1878.55  1920.72  1931.44  1942.85
                             1970.09  1977.94  1987.44  2032.20  2046.22
                             2053.91  2108.70  2137.51  2167.24  2309.24
                             2474.34  2506.41  4259.88  4292.21  4368.28
                             4386.67  4405.81  4505.05  4571.25  4720.82
                             5282.25  5454.47  5534.42

 Zero-point correction=                           0.214675 (Hartree/Particle)
 Thermal correction to Energy=                    0.229376
 Thermal correction to Enthalpy=                  0.230321
 Thermal correction to Gibbs Free Energy=         0.173087
 Sum of electronic and zero-point Energies=           -909.471925
 Sum of electronic and thermal Energies=              -909.457224
 Sum of electronic and thermal Enthalpies=            -909.456280
 Sum of electronic and thermal Free Energies=         -909.513514

                     E (Thermal)             CV                S
                      KCal/Mol        Cal/Mol-Kelvin    Cal/Mol-Kelvin
 Total                  143.936             56.671            120.459
 Electronic               0.000              0.000              0.000
 Translational            0.889              2.981             42.365
 Rotational               0.889              2.981             32.704
 Vibrational            142.158             50.709             45.389
 Vibration     1          0.595              1.978              4.867
 Vibration     2          0.597              1.971              4.320
 Vibration     3          0.604              1.950              3.485
 Vibration     4          0.607              1.939              3.230
 Vibration     5          0.618              1.904              2.692
 Vibration     6          0.625              1.880              2.437
 Vibration     7          0.627              1.873              2.377
 Vibration     8          0.636              1.844              2.163
 Vibration     9          0.646              1.814              1.980
 Vibration    10          0.660              1.770              1.762
 Vibration    11          0.672              1.733              1.614
 Vibration    12          0.682              1.705              1.515
 Vibration    13          0.715              1.610              1.246
 Vibration    14          0.720              1.594              1.209
 Vibration    15          0.729              1.569              1.153
 Vibration    16          0.767              1.469              0.960
 Vibration    17          0.787              1.415              0.874
 Vibration    18          0.790              1.409              0.865
 Vibration    19          0.817              1.341              0.769
 Vibration    20          0.899              1.153              0.557
 Vibration    21          0.926              1.095              0.504
 Vibration    22          0.932              1.084              0.494
 Vibration    23          0.946              1.056              0.470
 Vibration    24          0.962              1.025              0.444

                           ! Non-Optimized Parameters !
 Normal termination of Gaussian 16 at Sun Oct 27 01:15:42 2024.
