 Gaussian 16, Revision C.01,
 Gaussian 16:  EM64L-G16RevC.01  3-Jul-2019

 ------------------------------------------------------
 # PBE1PBE/aug-cc-pVDZ opt freq EmpiricalDispersion=GD3
 ------------------------------------------------------

 ----
 blah
 ----
 Symbolic Z-matrix:
 Charge =  0 Multiplicity = 2

 SCF Done:  E(UPBE1PBE) =  -909.552950432     A.U. after   22 cycles
 SCF Done:  E(UPBE1PBE) =  -909.556709588     A.U. after   18 cycles
 SCF Done:  E(UPBE1PBE) =  -909.557320974     A.U. after   18 cycles
 SCF Done:  E(UPBE1PBE) =  -909.559425085     A.U. after   17 cycles
 SCF Done:  E(UPBE1PBE) =  -909.560334505     A.U. after   17 cycles
 SCF Done:  E(UPBE1PBE) =  -909.561807694     A.U. after   16 cycles
 SCF Done:  E(UPBE1PBE) =  -909.562479561     A.U. after   17 cycles
 SCF Done:  E(UPBE1PBE) =  -909.562920949     A.U. after   16 cycles
 SCF Done:  E(UPBE1PBE) =  -909.563132562     A.U. after   16 cycles
 SCF Done:  E(UPBE1PBE) =  -909.563265257     A.U. after   15 cycles
 SCF Done:  E(UPBE1PBE) =  -909.563885301     A.U. after   14 cycles
 SCF Done:  E(UPBE1PBE) =  -909.563992150     A.U. after   15 cycles
 SCF Done:  E(UPBE1PBE) =  -909.563966341     A.U. after   15 cycles
 SCF Done:  E(UPBE1PBE) =  -909.564010299     A.U. after   14 cycles
 SCF Done:  E(UPBE1PBE) =  -909.563987417     A.U. after   13 cycles
 SCF Done:  E(UPBE1PBE) =  -909.564011096     A.U. after   14 cycles
 SCF Done:  E(UPBE1PBE) =  -909.564011017     A.U. after   11 cycles
 SCF Done:  E(UPBE1PBE) =  -909.564011100     A.U. after   11 cycles
 SCF Done:  E(UPBE1PBE) =  -909.564011170     A.U. after   10 cycles
 Optimization completed.
    -- Stationary point found.
 Normal termination of Gaussian 16 at Sun Oct 27 22:55:35 2024.

 ----------------------------------------------------------------------
 #N Geom=AllCheck Guess=TCheck SCRF=Check GenChk UPBE1PBE/Aug-CC-pVDZ F
 req
 ----------------------------------------------------------------------

 Structure from the checkpoint file:  "/scr/Gau-81564.chk"
 ----
 blah
 ----
 Charge =  0 Multiplicity = 2

                         Standard orientation:
 ---------------------------------------------------------------------
 Center     Atomic      Atomic             Coordinates (Angstroms)
 Number     Number       Type             X           Y           Z
 ---------------------------------------------------------------------
      1          6           0       -2.720187   -0.584869    0.260572
      2          6           0       -1.294719   -0.812801    0.783790
      3          6           0       -0.498608   -0.695251   -0.531962
      4          8           0       -1.110685   -2.092128    1.352355
      5          1           0       -1.016271   -0.005259    1.471638
      6          8           0       -1.135071    0.325171   -1.260086
      7          1           0       -0.596044   -1.668106   -1.047689
      8          6           0        0.943525   -0.396217   -0.340181
      9          6           0       -2.516903    0.442180   -0.847016
     10          1           0       -3.378959   -0.201489    1.056017
     11          8           0       -3.226571   -1.774933   -0.303298
     12          6           0       -2.771202    1.874971   -0.420903
     13          1           0       -3.154920    0.182167   -1.704708
     14          8           0       -2.097075    2.213179    0.766946
     15          1           0       -3.847308    2.003502   -0.235030
     16          1           0       -2.491218    2.541507   -1.254363
     17          1           0       -2.967640   -2.497765    0.283181
     18          1           0       -1.141357   -2.017602    2.309745
     19          1           0       -1.141568    2.167637    0.595442
     20          6           0        1.921044   -1.382805   -0.596440
     21          7           0        3.218902   -1.239703   -0.465805
     22          6           0        3.700814   -0.002462   -0.033463
     23          7           0        2.773582    0.998579    0.254735
     24          6           0        1.405303    0.898458    0.177183
     25          1           0        1.578140   -2.361311   -0.947111
     26          1           0        3.151257    1.873317    0.602198
     27          8           0        4.888428    0.212859    0.100952
     28          8           0        0.686486    1.818857    0.547966
 ---------------------------------------------------------------------

 SCF Done:  E(UPBE1PBE) =  -909.564011170     A.U. after    1 cycles

 The electronic state is 2-A.
 Alpha  occ. eigenvalues --  -19.27597 -19.25780 -19.24939 -19.24378 -19.24048
 Alpha  occ. eigenvalues --  -19.21822 -14.47830 -14.45232 -10.39550 -10.39076
 Alpha  occ. eigenvalues --  -10.32890 -10.32524 -10.32250 -10.32153 -10.30409
 Alpha  occ. eigenvalues --  -10.29732 -10.28239  -1.14021  -1.12381  -1.11758
 Alpha  occ. eigenvalues --   -1.09983  -1.07233  -1.05197  -1.02491  -0.97500
 Alpha  occ. eigenvalues --   -0.87799  -0.82136  -0.79638  -0.72694  -0.71681
 Alpha  occ. eigenvalues --   -0.69136  -0.65865  -0.63132  -0.60698  -0.59623
 Alpha  occ. eigenvalues --   -0.58000  -0.55147  -0.54548  -0.53683  -0.52503
 Alpha  occ. eigenvalues --   -0.52070  -0.50805  -0.50459  -0.48082  -0.47683
 Alpha  occ. eigenvalues --   -0.46556  -0.45788  -0.45413  -0.43368  -0.41623
 Alpha  occ. eigenvalues --   -0.41547  -0.40562  -0.38508  -0.37838  -0.35860
 Alpha  occ. eigenvalues --   -0.34933  -0.33978  -0.33246  -0.33006  -0.32059
 Alpha  occ. eigenvalues --   -0.31520  -0.30637  -0.29121  -0.27798
 Alpha virt. eigenvalues --   -0.06476  -0.02792  -0.02399  -0.00092   0.00113
 Alpha virt. eigenvalues --    0.00631   0.01865   0.02551   0.02980   0.03298
 Alpha virt. eigenvalues --    0.03717   0.04145   0.05211   0.05400   0.05937

  Beta  occ. eigenvalues --  -19.27600 -19.25705 -19.24646 -19.24369 -19.23551
  Beta  occ. eigenvalues --  -19.21822 -14.47851 -14.44468 -10.39687 -10.39171
  Beta  occ. eigenvalues --  -10.33178 -10.32576 -10.32046 -10.31346 -10.30393
  Beta  occ. eigenvalues --  -10.29733 -10.28239  -1.13520  -1.12182  -1.11179
  Beta  occ. eigenvalues --   -1.09884  -1.07199  -1.05183  -1.01626  -0.96838
  Beta  occ. eigenvalues --   -0.86248  -0.82002  -0.79125  -0.72562  -0.71540
  Beta  occ. eigenvalues --   -0.68874  -0.65701  -0.62964  -0.60411  -0.59279
  Beta  occ. eigenvalues --   -0.57828  -0.55039  -0.54350  -0.53500  -0.52010
  Beta  occ. eigenvalues --   -0.51373  -0.50661  -0.50183  -0.47788  -0.47288
  Beta  occ. eigenvalues --   -0.45813  -0.45585  -0.44091  -0.43316  -0.41516
  Beta  occ. eigenvalues --   -0.41375  -0.38541  -0.38266  -0.37459  -0.35638
  Beta  occ. eigenvalues --   -0.34443  -0.33002  -0.32350  -0.32264  -0.31581
  Beta  occ. eigenvalues --   -0.30707  -0.30277  -0.28014
  Beta virt. eigenvalues --   -0.18484  -0.05254  -0.02521  -0.00864  -0.00009
  Beta virt. eigenvalues --    0.00146   0.00679   0.01881   0.02569   0.03016
  Beta virt. eigenvalues --    0.03323   0.03772   0.04201   0.05232   0.05573

 Mulliken charges and spin densities:
               1          2
     1  C    1.109227   0.009476
     2  C    0.511860   0.047804
     3  C    1.403558  -0.082763
     4  O   -0.666927   0.005300
     5  H   -0.548809  -0.006254
     6  O   -0.909301   0.009862
     7  H   -0.669013   0.007411
     8  C    0.862897   0.890256
     9  C    0.912058  -0.005816
    10  H   -0.398065   0.004932
    11  O   -0.689408   0.002737
    12  C    1.018190   0.000662
    13  H   -0.471058   0.001332
    14  O   -0.496432   0.000385
    15  H   -0.279908  -0.000062
    16  H   -0.254449   0.000055
    17  H    0.149638   0.000008
    18  H    0.178838  -0.000257
    19  H    0.245540  -0.001479
    20  C    0.661278  -0.317659
    21  N   -0.586330   0.384631
    22  C    0.736322  -0.087868
    23  N   -0.394813  -0.003780
    24  C    0.593866  -0.150348
    25  H   -0.593713  -0.001811
    26  H   -0.052654  -0.001141
    27  O   -0.555898   0.187859
    28  O   -0.816493   0.106525
 Sum of Mulliken charges =  -0.00000   1.00000

 Dipole moment (field-independent basis, Debye):
    X=             -2.6639    Y=             -1.4575    Z=              1.3727  Tot=              3.3324
 Quadrupole moment (field-independent basis, Debye-Ang):
   XX=           -121.7489   YY=           -100.7613   ZZ=            -93.1960
   XY=              6.5231   XZ=             -0.6596   YZ=             -6.7845

  Exact polarizability:     227.669      -4.211     137.729       1.902       4.935     104.369
 Approx polarizability:     299.742     -11.205     199.095       1.142      12.249     160.171

                      1                      2                      3
                      A                      A                      A
 Frequencies --     36.7363                51.7426                91.4350
 Red. masses --      8.6052                 6.4819                 6.4038
 Frc consts  --      0.0068                 0.0102                 0.0315
 IR Inten    --      0.6349                 1.4086                 4.9446

                      4                      5                      6
                      A                      A                      A
 Frequencies --    102.2854               135.3566               142.1711
 Red. masses --      6.2585                 7.3946                 7.7116
 Frc consts  --      0.0386                 0.0798                 0.0918
 IR Inten    --      3.3811                 1.4005                 5.1842

                      7                      8                      9
                      A                      A                      A
 Frequencies --    162.0488               172.3573               207.7844
 Red. masses --      7.0395                 9.9929                 1.7554
 Frc consts  --      0.1089                 0.1749                 0.0447
 IR Inten    --      4.5003                 6.6666                 0.4411

                     10                     11                     12
                      A                      A                      A
 Frequencies --    234.2576               248.6998               262.6445
 Red. masses --      1.9985                 5.5998                 5.9070
 Frc consts  --      0.0646                 0.2041                 0.2401
 IR Inten    --      9.3766                 7.7474                14.6879

                     13                     14                     15
                      A                      A                      A
 Frequencies --    315.4788               339.7059               344.5332
 Red. masses --      4.7499                 2.9045                 5.7551
 Frc consts  --      0.2785                 0.1975                 0.4025
 IR Inten    --      9.3067                 8.7498                10.2227

                     16                     17                     18
                      A                      A                      A
 Frequencies --    387.3187               405.4245               457.0450
 Red. masses --      3.1276                 9.5590                 1.2167
 Frc consts  --      0.2764                 0.9257                 0.1497
 IR Inten    --     22.3427                14.2703               136.3384

                     19                     20                     21
                      A                      A                      A
 Frequencies --    465.3770               521.0441               554.9669
 Red. masses --      3.8804                 6.2346                 5.7163
 Frc consts  --      0.4951                 0.9973                 1.0373
 IR Inten    --      5.8745                31.4188                 5.2361

                     22                     23                     24
                      A                      A                      A
 Frequencies --    561.9756               612.0495               646.7155
 Red. masses --      8.9827                 6.9295                 5.1130
 Frc consts  --      1.6715                 1.5294                 1.2600
 IR Inten    --      2.3389                 7.3149                 4.2470

                     25                     26                     27
                      A                      A                      A
 Frequencies --    686.7455               711.6260               719.9105
 Red. masses --      1.0913                 4.1601                 1.2963
 Frc consts  --      0.3032                 1.2412                 0.3958
 IR Inten    --    163.5859                 6.3992                60.6951

                     28                     29                     30
                      A                      A                      A
 Frequencies --    744.7568               758.2268               771.2264
 Red. masses --      7.6942                 6.0346                 6.9378
 Frc consts  --      2.5145                 2.0441                 2.4313
 IR Inten    --      2.9355                 7.3050                15.0041

                     31                     32                     33
                      A                      A                      A
 Frequencies --    803.1626               865.4125               891.6734
 Red. masses --      9.0690                 4.1093                 3.3490
 Frc consts  --      3.4468                 1.8133                 1.5689
 IR Inten    --     38.6659                 1.9290                30.4583

                     34                     35                     36
                      A                      A                      A
 Frequencies --    916.1345               934.2378               954.0089
 Red. masses --      2.9486                 2.3792                 3.5318
 Frc consts  --      1.4581                 1.2235                 1.8939
 IR Inten    --      3.1413                 5.0233                19.7201

                     37                     38                     39
                      A                      A                      A
 Frequencies --    978.1865              1006.0870              1043.9183
 Red. masses --      1.5499                 2.4182                 2.4889
 Frc consts  --      0.8738                 1.4421                 1.5981
 IR Inten    --     11.6024                11.1326                63.8014

                     40                     41                     42
                      A                      A                      A
 Frequencies --   1080.6240              1112.8268              1122.8111
 Red. masses --      1.8125                 4.2626                 3.0429
 Frc consts  --      1.2470                 3.1101                 2.2602
 IR Inten    --     41.4173               111.0693                54.7611

                     43                     44                     45
                      A                      A                      A
 Frequencies --   1150.8031              1163.7241              1201.1187
 Red. masses --      3.7019                 4.1775                 1.4265
 Frc consts  --      2.8885                 3.3333                 1.2125
 IR Inten    --    113.9205                80.5007                21.2033

                     46                     47                     48
                      A                      A                      A
 Frequencies --   1212.3430              1231.3804              1235.9230
 Red. masses --      1.2798                 2.2979                 1.1583
 Frc consts  --      1.1083                 2.0529                 1.0424
 IR Inten    --     58.5014               108.0093                14.9077

                     49                     50                     51
                      A                      A                      A
 Frequencies --   1264.5861              1274.4948              1287.4221
 Red. masses --      2.0813                 2.3437                 1.4363
 Frc consts  --      1.9610                 2.2430                 1.4026
 IR Inten    --     15.6195                19.4571                18.3417

                     52                     53                     54
                      A                      A                      A
 Frequencies --   1308.7215              1317.3434              1337.8008
 Red. masses --      1.3178                 1.4413                 1.3591
 Frc consts  --      1.3298                 1.4736                 1.4331
 IR Inten    --     16.8190                 3.9537                 6.6559

                     55                     56                     57
                      A                      A                      A
 Frequencies --   1353.9300              1377.6521              1381.1836
 Red. masses --      1.4316                 1.6012                 2.0766
 Frc consts  --      1.5462                 1.7905                 2.3341
 IR Inten    --     87.2569                 0.7833                20.7878

                     58                     59                     60
                      A                      A                      A
 Frequencies --   1402.1988              1413.7179              1418.0998
 Red. masses --      2.2197                 1.8211                 1.8251
 Frc consts  --      2.5714                 2.1444                 2.1625
 IR Inten    --      6.9192                29.1229                 5.3051

                     61                     62                     63
                      A                      A                      A
 Frequencies --   1423.4713              1443.5431              1457.9372
 Red. masses --      1.7807                 1.2567                 3.1236
 Frc consts  --      2.1259                 1.5429                 3.9119
 IR Inten    --     51.7260                19.5190                76.8426

                     64                     65                     66
                      A                      A                      A
 Frequencies --   1471.7993              1519.1472              1736.6825
 Red. masses --      1.0891                 4.8620                 7.7641
 Frc consts  --      1.3900                 6.6109                13.7969
 IR Inten    --      3.3539                33.6507               506.8149

                     67                     68                     69
                      A                      A                      A
 Frequencies --   1743.7519              3012.8299              3030.9057
 Red. masses --     12.8077                 1.0829                 1.0648
 Frc consts  --     22.9451                 5.7913                 5.7631
 IR Inten    --     78.4007                22.3454                50.6158

                     70                     71                     72
                      A                      A                      A
 Frequencies --   3054.7682              3080.9670              3104.8246
 Red. masses --      1.0859                 1.0870                 1.0998
 Frc consts  --      5.9704                 6.0793                 6.2464
 IR Inten    --     19.1081                28.1742                35.2160

                     73                     74                     75
                      A                      A                      A
 Frequencies --   3121.8106              3165.0259              3611.6122
 Red. masses --      1.0879                 1.0916                 1.0779
 Frc consts  --      6.2465                 6.4429                 8.2838
 IR Inten    --      5.0621                 4.9436                81.2373

                     76                     77                     78
                      A                      A                      A
 Frequencies --   3677.5914              3803.6733              3892.6213
 Red. masses --      1.0677                 1.0654                 1.0671
 Frc consts  --      8.5078                 9.0817                 9.5267
 IR Inten    --    473.6372                51.5710                74.5178

 - Thermochemistry -
 -------------------
 Temperature   298.150 Kelvin.  Pressure   1.00000 Atm.
 Atom     1 has atomic number  6 and mass  12.00000

 Molecular mass:   243.06171 amu.
 Principal axes and moments of inertia in atomic units:
                           1         2         3
     Eigenvalues --  1939.145145816.984236907.38574
           X            0.99999  -0.00317   0.00084
           Y            0.00318   0.99994  -0.01027
           Z           -0.00081   0.01027   0.99995
 This molecule is an asymmetric top.
 Rotational symmetry number  1.
 Warning -- assumption of classical behavior for rotation
           may cause significant error
 Rotational temperatures (Kelvin)      0.04467     0.01489     0.01254
 Rotational constants (GHZ):           0.93069     0.31025     0.26128
 Zero-point vibrational energy     563717.1 (Joules/Mol)
                                  134.73161 (Kcal/Mol)
 Warning -- explicit consideration of  23 degrees of freedom as
           vibrations may cause significant error
 Vibrational temperatures:     52.86    74.45   131.55   147.17   194.75
          (Kelvin)            204.55   233.15   247.98   298.96   337.04
                              357.82   377.89   453.90   488.76   495.71
                              557.27   583.32   657.59   669.57   749.67
                              798.47   808.56   880.60   930.48   988.07
                             1023.87  1035.79  1071.54  1090.92  1109.62
                             1155.57  1245.14  1282.92  1318.11  1344.16
                             1372.61  1407.39  1447.53  1501.97  1554.78
                             1601.11  1615.47  1655.75  1674.34  1728.14
                             1744.29  1771.68  1778.22  1819.46  1833.71
                             1852.31  1882.96  1895.36  1924.80  1948.00
                             1982.13  1987.22  2017.45  2034.02  2040.33
                             2048.06  2076.94  2097.65  2117.59  2185.71
                             2498.70  2508.87  4334.79  4360.80  4395.13
                             4432.82  4467.15  4491.59  4553.77  5196.30
                             5291.23  5472.64  5600.61

 Zero-point correction=                           0.214708 (Hartree/Particle)
 Thermal correction to Energy=                    0.229800
 Thermal correction to Enthalpy=                  0.230745
 Thermal correction to Gibbs Free Energy=         0.171446
 Sum of electronic and zero-point Energies=           -909.349303
 Sum of electronic and thermal Energies=              -909.334211
 Sum of electronic and thermal Enthalpies=            -909.333267
 Sum of electronic and thermal Free Energies=         -909.392565

                     E (Thermal)             CV                S
                      KCal/Mol        Cal/Mol-Kelvin    Cal/Mol-Kelvin
 Total                  144.202             57.286            124.804
 Electronic               0.000              0.000              1.377
 Translational            0.889              2.981             42.365
 Rotational               0.889              2.981             32.721
 Vibrational            142.425             51.325             48.340
 Vibration     1          0.594              1.982              5.428
 Vibration     2          0.596              1.977              4.750
 Vibration     3          0.602              1.955              3.629
 Vibration     4          0.604              1.947              3.410
 Vibration     5          0.613              1.918              2.868
 Vibration     6          0.616              1.911              2.774
 Vibration     7          0.622              1.889              2.526
 Vibration     8          0.626              1.876              2.410
 Vibration     9          0.641              1.829              2.063
 Vibration    10          0.654              1.788              1.846
 Vibration    11          0.662              1.765              1.740
 Vibration    12          0.670              1.741              1.644
 Vibration    13          0.703              1.644              1.333
 Vibration    14          0.720              1.596              1.214
 Vibration    15          0.723              1.586              1.191
 Vibration    16          0.756              1.497              1.010
 Vibration    17          0.770              1.458              0.943
 Vibration    18          0.815              1.345              0.775
 Vibration    19          0.823              1.327              0.751
 Vibration    20          0.876              1.203              0.608
 Vibration    21          0.910              1.129              0.534
 Vibration    22          0.918              1.114              0.520
 Vibration    23          0.971              1.006              0.429

 Optimization completed.
    -- Stationary point found.
 Normal termination of Gaussian 16 at Sun Oct 27 23:22:13 2024.
