 Gaussian 16, Revision C.01,
 Gaussian 16:  EM64L-G16RevC.01  3-Jul-2019

 ------------------------------------------------------
 # PBE1PBE/aug-cc-pVDZ opt freq EmpiricalDispersion=GD3
 ------------------------------------------------------

 ----
 blah
 ----
 Symbolic Z-matrix:
 Charge =  0 Multiplicity = 1

 SCF Done:  E(RPBE1PBE) =  -910.202689817     A.U. after   14 cycles
 SCF Done:  E(RPBE1PBE) =  -910.221144237     A.U. after   12 cycles
 SCF Done:  E(RPBE1PBE) =  -910.222146839     A.U. after   12 cycles
 SCF Done:  E(RPBE1PBE) =  -910.222374706     A.U. after   12 cycles
 SCF Done:  E(RPBE1PBE) =  -910.222526477     A.U. after   12 cycles
 SCF Done:  E(RPBE1PBE) =  -910.222648238     A.U. after   12 cycles
 SCF Done:  E(RPBE1PBE) =  -910.222711077     A.U. after   11 cycles
 SCF Done:  E(RPBE1PBE) =  -910.222988474     A.U. after   15 cycles
 SCF Done:  E(RPBE1PBE) =  -910.223394839     A.U. after   12 cycles
 SCF Done:  E(RPBE1PBE) =  -910.224732492     A.U. after   15 cycles
 SCF Done:  E(RPBE1PBE) =  -910.232944725     A.U. after   12 cycles
 SCF Done:  E(RPBE1PBE) =  -910.233767212     A.U. after   11 cycles
 SCF Done:  E(RPBE1PBE) =  -910.233804898     A.U. after   11 cycles
 SCF Done:  E(RPBE1PBE) =  -910.233816849     A.U. after   10 cycles
 SCF Done:  E(RPBE1PBE) =  -910.233819581     A.U. after   10 cycles
 SCF Done:  E(RPBE1PBE) =  -910.233820877     A.U. after    9 cycles
 SCF Done:  E(RPBE1PBE) =  -910.233821179     A.U. after    8 cycles
 SCF Done:  E(RPBE1PBE) =  -910.233821278     A.U. after    8 cycles
 SCF Done:  E(RPBE1PBE) =  -910.233821330     A.U. after    7 cycles
 Optimization completed.
    -- Stationary point found.
 Normal termination of Gaussian 16 at Sat Oct 26 06:33:56 2024.

 ----------------------------------------------------------------------
 #N Geom=AllCheck Guess=TCheck SCRF=Check GenChk RPBE1PBE/Aug-CC-pVDZ F
 req
 ----------------------------------------------------------------------

 Structure from the checkpoint file:  "/scr/Gau-86954.chk"
 ----
 blah
 ----
 Charge =  0 Multiplicity = 1

                         Standard orientation:
 ---------------------------------------------------------------------
 Center     Atomic      Atomic             Coordinates (Angstroms)
 Number     Number       Type             X           Y           Z
 ---------------------------------------------------------------------
      1          6           0       -2.774209   -0.558988    0.146136
      2          6           0       -1.339601   -0.921531    0.547887
      3          6           0       -0.545821   -0.299468   -0.615213
      4          8           0       -1.231577   -2.311984    0.672390
      5          1           0       -1.077255   -0.402275    1.485417
      6          8           0       -1.211204    0.922462   -0.877971
      7          1           0       -0.632315   -0.985146   -1.478706
      8          6           0        0.903247   -0.012345   -0.355943
      9          6           0       -2.616905    0.775418   -0.585225
     10          1           0       -3.425254   -0.465735    1.029278
     11          8           0       -3.281244   -1.516474   -0.757339
     12          6           0       -3.039564    1.997772    0.203049
     13          1           0       -3.180092    0.725197   -1.529311
     14          8           0       -2.342788    2.109787    1.428390
     15          1           0       -4.107401    1.922221    0.446419
     16          1           0       -2.894750    2.897103   -0.420131
     17          1           0       -2.898765   -2.363095   -0.482894
     18          1           0       -0.292642   -2.544018    0.542243
     19          1           0       -1.403979    2.100874    1.211189
     20          6           0        1.436013    1.225092   -0.493270
     21          7           0        2.765473    1.476607   -0.287983
     22          6           0        3.686613    0.506752    0.056770
     23          7           0        3.121786   -0.748214    0.181711
     24          6           0        1.789574   -1.101513    0.018119
     25          1           0        0.822244    2.074226   -0.785059
     26          1           0        3.142005    2.407468   -0.394853
     27          1           0        3.758087   -1.491453    0.445685
     28          8           0        4.865501    0.736087    0.231999
     29          8           0        1.449215   -2.270037    0.195127
 ---------------------------------------------------------------------

 SCF Done:  E(RPBE1PBE) =  -910.233821330     A.U. after    1 cycles

 The electronic state is 1-A.
 Alpha  occ. eigenvalues --  -19.25835 -19.23767 -19.23677 -19.22992 -19.22799
 Alpha  occ. eigenvalues --  -19.22404 -14.49170 -14.48005 -10.40765 -10.38397
 Alpha  occ. eigenvalues --  -10.33309 -10.31238 -10.29602 -10.29498 -10.28961
 Alpha  occ. eigenvalues --  -10.28919 -10.28131  -1.13929  -1.11416  -1.10887
 Alpha  occ. eigenvalues --   -1.07617  -1.06593  -1.04789  -1.03687  -0.98631
 Alpha  occ. eigenvalues --   -0.87001  -0.80786  -0.79182  -0.74175  -0.71790
 Alpha  occ. eigenvalues --   -0.70575  -0.65504  -0.62973  -0.61608  -0.59775
 Alpha  occ. eigenvalues --   -0.56294  -0.55981  -0.54492  -0.53396  -0.52344
 Alpha  occ. eigenvalues --   -0.52105  -0.51655  -0.50384  -0.48605  -0.47698
 Alpha  occ. eigenvalues --   -0.46193  -0.45390  -0.45004  -0.44561  -0.42094
 Alpha  occ. eigenvalues --   -0.42040  -0.40470  -0.39759  -0.37977  -0.36655
 Alpha  occ. eigenvalues --   -0.34258  -0.33597  -0.33055  -0.31834  -0.31085
 Alpha  occ. eigenvalues --   -0.30120  -0.29691  -0.29263  -0.27192
 Alpha virt. eigenvalues --   -0.06847  -0.02332  -0.01593  -0.00054   0.00287
 Alpha virt. eigenvalues --    0.00702   0.01685   0.01782   0.02780   0.03140
 Alpha virt. eigenvalues --    0.03791   0.03916   0.04987   0.05425   0.05614

 Mulliken charges:
               1
     1  C    0.992351
     2  C    0.774343
     3  C    0.726701
     4  O   -0.661416
     5  H   -0.538069
     6  O   -0.762068
     7  H   -0.358518
     8  C    0.594622
     9  C    0.952571
    10  H   -0.385170
    11  O   -0.701540
    12  C    1.058719
    13  H   -0.516027
    14  O   -0.500391
    15  H   -0.254693
    16  H   -0.260742
    17  H    0.168614
    18  H    0.185163
    19  H    0.161961
    20  C    1.322793
    21  N   -0.509981
    22  C    0.687743
    23  N   -0.389707
    24  C    0.542794
    25  H   -0.773897
    26  H   -0.075388
    27  H   -0.058807
    28  O   -0.571989
    29  O   -0.849973
 Sum of Mulliken charges =   0.00000

 Dipole moment (field-independent basis, Debye):
    X=              1.0317    Y=              3.1751    Z=             -1.3226  Tot=              3.5910
 Quadrupole moment (field-independent basis, Debye-Ang):
   XX=           -115.1554   YY=            -97.7125   ZZ=           -102.7205
   XY=             -2.4208   XZ=             -0.6803   YZ=             -4.2140

  Exact polarizability:     183.106       9.377     150.074       5.548      -4.144     101.016
 Approx polarizability:     228.657      22.555     233.403       8.257      -8.738     154.949

                      1                      2                      3
                      A                      A                      A
 Frequencies --     30.3971                45.6239                74.0937
 Red. masses --      6.5563                 8.2642                 6.8396
 Frc consts  --      0.0036                 0.0101                 0.0221
 IR Inten    --      0.7408                 0.2770                 4.0502

                      4                      5                      6
                      A                      A                      A
 Frequencies --     92.5741               123.6172               148.9265
 Red. masses --      8.2315                 4.2675                 7.7677
 Frc consts  --      0.0416                 0.0384                 0.1015
 IR Inten    --      2.0419                 3.8416                 7.7250

                      7                      8                      9
                      A                      A                      A
 Frequencies --    168.2231               194.3393               232.2529
 Red. masses --      8.2565                 6.8125                 4.3240
 Frc consts  --      0.1377                 0.1516                 0.1374
 IR Inten    --      2.2483                 1.1186                10.4884

                     10                     11                     12
                      A                      A                      A
 Frequencies --    250.6207               279.7998               311.6668
 Red. masses --      4.8475                 5.8005                 3.6384
 Frc consts  --      0.1794                 0.2676                 0.2082
 IR Inten    --      9.8326                10.1610                 4.6281

                     13                     14                     15
                      A                      A                      A
 Frequencies --    330.5543               353.1089               400.3918
 Red. masses --      3.4672                 4.3548                 2.5289
 Frc consts  --      0.2232                 0.3199                 0.2389
 IR Inten    --      2.8796                36.4731                35.9745

                     16                     17                     18
                      A                      A                      A
 Frequencies --    413.5610               428.4180               452.9516
 Red. masses --      6.3158                 1.7922                 2.2093
 Frc consts  --      0.6364                 0.1938                 0.2671
 IR Inten    --     54.7162                61.8687                18.2594

                     19                     20                     21
                      A                      A                      A
 Frequencies --    485.9204               537.2043               559.2201
 Red. masses --      1.3833                 5.3585                 7.5885
 Frc consts  --      0.1924                 0.9111                 1.3982
 IR Inten    --     93.4782                19.6970                19.8309

                     22                     23                     24
                      A                      A                      A
 Frequencies --    566.7865               607.1112               609.4541
 Red. masses --      6.5625                 1.1225                 4.9479
 Frc consts  --      1.2421                 0.2438                 1.0828
 IR Inten    --      3.0483                54.6028                19.4830

                     25                     26                     27
                      A                      A                      A
 Frequencies --    653.1912               663.7891               705.5097
 Red. masses --      4.3833                 1.2344                 1.2039
 Frc consts  --      1.1019                 0.3205                 0.3531
 IR Inten    --     17.3825                50.5205                55.2408

                     28                     29                     30
                      A                      A                      A
 Frequencies --    722.0686               745.5570               769.1163
 Red. masses --      3.8181                 5.8846                 8.2648
 Frc consts  --      1.1729                 1.9272                 2.8805
 IR Inten    --      8.3992                16.6485                33.0585

                     31                     32                     33
                      A                      A                      A
 Frequencies --    792.2206               799.1572               882.2424
 Red. masses --      6.9434                 8.1338                 3.2168
 Frc consts  --      2.5675                 3.0606                 1.4752
 IR Inten    --     23.9393                 8.6039                11.5588

                     34                     35                     36
                      A                      A                      A
 Frequencies --    910.3546               916.3810               940.0782
 Red. masses --      3.7440                 1.9967                 2.5173
 Frc consts  --      1.8281                 0.9879                 1.3108
 IR Inten    --     28.7406                 8.6686                17.6011

                     37                     38                     39
                      A                      A                      A
 Frequencies --    959.4824               996.2824              1024.8432
 Red. masses --      1.5134                 2.7540                 2.9177
 Frc consts  --      0.8209                 1.6106                 1.8055
 IR Inten    --     13.0823                 6.2835                32.0031

                     40                     41                     42
                      A                      A                      A
 Frequencies --   1072.5738              1092.6965              1101.0801
 Red. masses --      2.8486                 3.1060                 2.5344
 Frc consts  --      1.9308                 2.1850                 1.8104
 IR Inten    --     18.1950                17.5895                83.9336

                     43                     44                     45
                      A                      A                      A
 Frequencies --   1128.6878              1156.0693              1167.7459
 Red. masses --      3.1237                 3.3184                 3.0280
 Frc consts  --      2.3446                 2.6131                 2.4328
 IR Inten    --     67.3823               103.8600                66.7834

                     46                     47                     48
                      A                      A                      A
 Frequencies --   1180.5922              1217.4928              1226.4178
 Red. masses --      2.0618                 1.2141                 1.3593
 Frc consts  --      1.6932                 1.0603                 1.2046
 IR Inten    --     52.4794                32.1605                40.8710

                     49                     50                     51
                      A                      A                      A
 Frequencies --   1230.0239              1256.7777              1271.2275
 Red. masses --      1.7786                 2.1833                 1.3519
 Frc consts  --      1.5855                 2.0318                 1.2872
 IR Inten    --    116.8237                 2.7502                20.0159

                     52                     53                     54
                      A                      A                      A
 Frequencies --   1286.2022              1306.1576              1335.3246
 Red. masses --      1.1834                 1.4427                 1.4285
 Frc consts  --      1.1535                 1.4502                 1.5007
 IR Inten    --      9.2638                 5.4792                 6.7171

                     55                     56                     57
                      A                      A                      A
 Frequencies --   1352.8746              1360.7227              1373.5598
 Red. masses --      1.4460                 1.3123                 1.7645
 Frc consts  --      1.5593                 1.4316                 1.9614
 IR Inten    --      3.2637                12.8734                37.8197

                     58                     59                     60
                      A                      A                      A
 Frequencies --   1381.6269              1395.4265              1408.2873
 Red. masses --      1.5412                 1.6239                 1.8263
 Frc consts  --      1.7334                 1.8630                 2.1340
 IR Inten    --     32.6682                24.0847                 2.3819

                     61                     62                     63
                      A                      A                      A
 Frequencies --   1413.5729              1427.8392              1448.0826
 Red. masses --      1.3794                 1.9494                 2.0260
 Frc consts  --      1.6239                 2.3416                 2.5031
 IR Inten    --     59.5483                 1.4376                81.5930

                     64                     65                     66
                      A                      A                      A
 Frequencies --   1456.6608              1477.1194              1536.9102
 Red. masses --      1.8547                 1.0871                 4.5628
 Frc consts  --      2.3187                 1.3975                 6.3500
 IR Inten    --     91.9506                 4.4370               166.6314

                     67                     68                     69
                      A                      A                      A
 Frequencies --   1712.6034              1747.5866              1837.3829
 Red. masses --      7.1142                 8.2989                 8.1936
 Frc consts  --     12.2939                14.9331                16.2977
 IR Inten    --      3.6296               615.9054               914.2997

                     70                     71                     72
                      A                      A                      A
 Frequencies --   3006.0923              3028.2858              3035.5488
 Red. masses --      1.0818                 1.0683                 1.0848
 Frc consts  --      5.7599                 5.7723                 5.8897
 IR Inten    --      9.9379                48.4594                22.5270

                     73                     74                     75
                      A                      A                      A
 Frequencies --   3060.9586              3076.9418              3124.3847
 Red. masses --      1.0870                 1.0864                 1.0970
 Frc consts  --      6.0009                 6.0601                 6.3094
 IR Inten    --     41.9976                36.7837                19.1325

                     76                     77                     78
                      A                      A                      A
 Frequencies --   3248.3723              3586.6438              3626.6127
 Red. masses --      1.0944                 1.0679                 1.0779
 Frc consts  --      6.8036                 8.0942                 8.3527
 IR Inten    --      0.7745               556.5872                77.6160

                     79                     80                     81
                      A                      A                      A
 Frequencies --   3666.9609              3760.2976              3842.6310
 Red. masses --      1.0791                 1.0651                 1.0656
 Frc consts  --      8.5495                 8.8731                 9.2702
 IR Inten    --    115.8194                68.6579                34.7917

 - Thermochemistry -
 -------------------
 Temperature   298.150 Kelvin.  Pressure   1.00000 Atm.
 Atom     1 has atomic number  6 and mass  12.00000

 Molecular mass:   244.06954 amu.
 Principal axes and moments of inertia in atomic units:
                           1         2         3
     Eigenvalues --  2065.761966024.936627425.34255
           X            0.99998  -0.00700  -0.00038
           Y            0.00699   0.99996  -0.00509
           Z            0.00042   0.00509   0.99999
 This molecule is an asymmetric top.
 Rotational symmetry number  1.
 Warning -- assumption of classical behavior for rotation
           may cause significant error
 Rotational temperatures (Kelvin)      0.04193     0.01438     0.01166
 Rotational constants (GHZ):           0.87364     0.29955     0.24305
 Zero-point vibrational energy     601722.5 (Joules/Mol)
                                  143.81513 (Kcal/Mol)
 Warning -- explicit consideration of  24 degrees of freedom as
           vibrations may cause significant error
 Vibrational temperatures:     43.73    65.64   106.60   133.19   177.86
          (Kelvin)            214.27   242.04   279.61   334.16   360.59
                              402.57   448.42   475.59   508.05   576.07
                              595.02   616.40   651.70   699.13   772.92
                              804.59   815.48   873.50   876.87   939.80
                              955.04  1015.07  1038.90  1072.69  1106.59
                             1139.83  1149.81  1269.35  1309.80  1318.47
                             1352.56  1380.48  1433.43  1474.52  1543.19
                             1572.15  1584.21  1623.93  1663.33  1680.13
                             1698.61  1751.70  1764.54  1769.73  1808.22
                             1829.01  1850.56  1879.27  1921.23  1946.48
                             1957.78  1976.25  1987.85  2007.71  2026.21
                             2033.82  2054.34  2083.47  2095.81  2125.25
                             2211.27  2464.05  2514.39  2643.58  4325.10
                             4357.03  4367.48  4404.04  4427.03  4495.29
                             4673.68  5160.38  5217.89  5275.94  5410.23
                             5528.69

 Zero-point correction=                           0.229184 (Hartree/Particle)
 Thermal correction to Energy=                    0.244125
 Thermal correction to Enthalpy=                  0.245069
 Thermal correction to Gibbs Free Energy=         0.186358
 Sum of electronic and zero-point Energies=           -910.004637
 Sum of electronic and thermal Energies=              -909.989696
 Sum of electronic and thermal Enthalpies=            -909.988752
 Sum of electronic and thermal Free Energies=         -910.047463

                     E (Thermal)             CV                S
                      KCal/Mol        Cal/Mol-Kelvin    Cal/Mol-Kelvin
 Total                  153.191             57.596            123.569
 Electronic               0.000              0.000              0.000
 Translational            0.889              2.981             42.378
 Rotational               0.889              2.981             32.891
 Vibrational            151.413             51.634             48.300
 Vibration     1          0.594              1.984              5.803
 Vibration     2          0.595              1.979              4.999
 Vibration     3          0.599              1.966              4.042
 Vibration     4          0.602              1.954              3.605
 Vibration     5          0.610              1.929              3.043
 Vibration     6          0.618              1.904              2.686
 Vibration     7          0.625              1.882              2.455
 Vibration     8          0.635              1.848              2.186
 Vibration     9          0.653              1.792              1.861
 Vibration    10          0.663              1.762              1.726
 Vibration    11          0.680              1.711              1.535
 Vibration    12          0.700              1.651              1.353
 Vibration    13          0.713              1.614              1.257
 Vibration    14          0.729              1.569              1.152
 Vibration    15          0.766              1.469              0.961
 Vibration    16          0.777              1.441              0.914
 Vibration    17          0.790              1.408              0.864
 Vibration    18          0.812              1.354              0.787
 Vibration    19          0.842              1.281              0.694
 Vibration    20          0.892              1.168              0.571
 Vibration    21          0.915              1.120              0.525
 Vibration    22          0.923              1.103              0.510
 Vibration    23          0.966              1.017              0.438
 Vibration    24          0.968              1.012              0.434

 Optimization completed.
    -- Stationary point found.
 Normal termination of Gaussian 16 at Sat Oct 26 06:50:12 2024.
