 Gaussian 16, Revision C.01,
 Gaussian 16:  EM64L-G16RevC.01  3-Jul-2019

 ------------------------------------------------------
 # PBE1PBE/aug-cc-pVDZ opt freq EmpiricalDispersion=GD3
 ------------------------------------------------------

 ----
 blah
 ----
 Symbolic Z-matrix:
 Charge =  0 Multiplicity = 1

 SCF Done:  E(RPBE1PBE) =  -910.208617001     A.U. after   14 cycles
 SCF Done:  E(RPBE1PBE) =  -910.218609161     A.U. after   12 cycles
 SCF Done:  E(RPBE1PBE) =  -910.219771762     A.U. after   11 cycles
 SCF Done:  E(RPBE1PBE) =  -910.219993543     A.U. after   11 cycles
 SCF Done:  E(RPBE1PBE) =  -910.220101819     A.U. after   11 cycles
 SCF Done:  E(RPBE1PBE) =  -910.220134039     A.U. after   10 cycles
 SCF Done:  E(RPBE1PBE) =  -910.220141268     A.U. after   10 cycles
 SCF Done:  E(RPBE1PBE) =  -910.220143289     A.U. after    9 cycles
 SCF Done:  E(RPBE1PBE) =  -910.220144009     A.U. after    8 cycles
 SCF Done:  E(RPBE1PBE) =  -910.220144215     A.U. after    8 cycles
 SCF Done:  E(RPBE1PBE) =  -910.220144272     A.U. after    7 cycles
 Optimization completed.
    -- Stationary point found.
 Normal termination of Gaussian 16 at Thu Oct 17 07:48:00 2024.

 ----------------------------------------------------------------------
 #N Geom=AllCheck Guess=TCheck SCRF=Check GenChk RPBE1PBE/Aug-CC-pVDZ F
 req
 ----------------------------------------------------------------------

 Structure from the checkpoint file:  "/scr/Gau-16432.chk"
 ----
 blah
 ----
 Charge =  0 Multiplicity = 1

                         Standard orientation:
 ---------------------------------------------------------------------
 Center     Atomic      Atomic             Coordinates (Angstroms)
 Number     Number       Type             X           Y           Z
 ---------------------------------------------------------------------
      1          6           0       -2.085877   -0.204336    0.814538
      2          6           0       -1.161234   -1.344116    0.387522
      3          6           0       -0.417412   -0.724940   -0.804387
      4          8           0       -1.994874   -2.409210   -0.026553
      5          1           0       -0.468916   -1.662637    1.176679
      6          8           0       -1.209246    0.316991   -1.305295
      7          1           0       -0.238995   -1.479339   -1.580467
      8          7           0        0.900839   -0.200296   -0.412033
      9          6           0       -2.405572    0.454649   -0.530984
     10          1           0       -1.529150    0.507192    1.437979
     11          8           0       -3.214732   -0.609315    1.535553
     12          6           0       -2.804028    1.907017   -0.460332
     13          1           0       -3.223345   -0.104769   -1.016280
     14          8           0       -1.787221    2.632893    0.213291
     15          1           0       -3.763537    1.959371    0.080649
     16          1           0       -2.952228    2.290639   -1.482792
     17          1           0       -3.480647   -1.466648    1.177057
     18          1           0       -1.445175   -3.183343   -0.183293
     19          1           0       -2.067363    3.546288    0.308999
     20          6           0        1.139176    1.133836   -0.202135
     21          6           0        2.357713    1.600278    0.154065
     22          6           0        3.467845    0.685441    0.325464
     23          7           0        3.117097   -0.655863    0.098701
     24          6           0        1.886861   -1.158280   -0.240147
     25          1           0        0.273320    1.779188   -0.342216
     26          1           0        2.530939    2.659753    0.315681
     27          1           0        3.851106   -1.342466    0.224051
     28          8           0        4.611141    0.970849    0.636560
     29          8           0        1.660384   -2.353136   -0.376599
 ---------------------------------------------------------------------

 SCF Done:  E(RPBE1PBE) =  -910.220144272     A.U. after    1 cycles

 The electronic state is 1-A.
 Alpha  occ. eigenvalues --  -19.26589 -19.26272 -19.25458 -19.24347 -19.21658
 Alpha  occ. eigenvalues --  -19.20087 -14.47700 -14.45690 -10.39089 -10.35193
 Alpha  occ. eigenvalues --  -10.34767 -10.31141 -10.30784 -10.30540 -10.30284
 Alpha  occ. eigenvalues --  -10.30250 -10.24980  -1.13653  -1.11745  -1.09693
 Alpha  occ. eigenvalues --   -1.08330  -1.08002  -1.07177  -1.01812  -0.96787
 Alpha  occ. eigenvalues --   -0.83913  -0.82517  -0.80260  -0.73024  -0.71990
 Alpha  occ. eigenvalues --   -0.67772  -0.65514  -0.63418  -0.60570  -0.58760
 Alpha  occ. eigenvalues --   -0.57982  -0.57180  -0.55208  -0.53786  -0.51423
 Alpha  occ. eigenvalues --   -0.51211  -0.49345  -0.48801  -0.47989  -0.47457
 Alpha  occ. eigenvalues --   -0.46339  -0.44897  -0.44129  -0.43626  -0.42653
 Alpha  occ. eigenvalues --   -0.42338  -0.40630  -0.40046  -0.38831  -0.38294
 Alpha  occ. eigenvalues --   -0.35962  -0.32982  -0.32453  -0.32169  -0.31156
 Alpha  occ. eigenvalues --   -0.30759  -0.29732  -0.28230  -0.25926
 Alpha virt. eigenvalues --   -0.04253  -0.01713  -0.00870   0.00056   0.00218
 Alpha virt. eigenvalues --    0.00690   0.01606   0.02240   0.02626   0.02875
 Alpha virt. eigenvalues --    0.03733   0.04074   0.04980   0.05642   0.05889

 Mulliken charges:
               1
     1  C    0.856830
     2  C    1.312441
     3  C    0.811301
     4  O   -0.759696
     5  H   -0.437193
     6  O   -0.754821
     7  H   -0.544096
     8  N    0.047106
     9  C    0.585283
    10  H   -0.423991
    11  O   -0.618403
    12  C    1.215191
    13  H   -0.557954
    14  O   -0.626167
    15  H   -0.218888
    16  H   -0.188068
    17  H    0.102659
    18  H    0.150671
    19  H    0.163410
    20  C    0.735158
    21  C    1.201883
    22  C    0.380872
    23  N   -0.209336
    24  C    0.521235
    25  H   -0.724528
    26  H   -0.595133
    27  H   -0.111056
    28  O   -0.662731
    29  O   -0.651978
 Sum of Mulliken charges =   0.00000

 Dipole moment (field-independent basis, Debye):
    X=             -4.8253    Y=              0.9438    Z=             -1.1587  Tot=              5.0514
 Quadrupole moment (field-independent basis, Debye-Ang):
   XX=           -115.9440   YY=            -88.0552   ZZ=           -103.2134
   XY=             -9.9941   XZ=              1.3189   YZ=             -1.7374

  Exact polarizability:     181.207       8.363     150.821       9.849       4.389     101.847
 Approx polarizability:     236.859      18.595     217.450      19.780      11.235     154.968

                      1                      2                      3
                      A                      A                      A
 Frequencies --     42.8441                52.2884                68.6275
 Red. masses --      7.8851                 5.6922                 6.0185
 Frc consts  --      0.0085                 0.0092                 0.0167
 IR Inten    --      0.6154                 0.6819                 2.2007

                      4                      5                      6
                      A                      A                      A
 Frequencies --     92.6920               122.0580               146.5715
 Red. masses --      5.8789                 5.6087                 6.4882
 Frc consts  --      0.0298                 0.0492                 0.0821
 IR Inten    --      2.9973                 3.2418                 1.7736

                      7                      8                      9
                      A                      A                      A
 Frequencies --    171.1557               199.4080               209.5455
 Red. masses --      9.6728                 6.7485                 1.6131
 Frc consts  --      0.1669                 0.1581                 0.0417
 IR Inten    --      3.4478                 3.7782                65.0579

                     10                     11                     12
                      A                      A                      A
 Frequencies --    251.6285               254.8949               279.9073
 Red. masses --      1.7935                 4.7187                 5.3087
 Frc consts  --      0.0669                 0.1806                 0.2451
 IR Inten    --     34.3039                 7.7820                 2.6634

                     13                     14                     15
                      A                      A                      A
 Frequencies --    293.5634               304.5927               341.3762
 Red. masses --      4.1538                 3.0655                 2.4302
 Frc consts  --      0.2109                 0.1676                 0.1669
 IR Inten    --     10.4629                11.1859                33.1350

                     16                     17                     18
                      A                      A                      A
 Frequencies --    358.8065               405.8283               420.4461
 Red. masses --      2.1042                 9.0041                 3.2070
 Frc consts  --      0.1596                 0.8737                 0.3340
 IR Inten    --     77.6964                20.2381                 6.9181

                     19                     20                     21
                      A                      A                      A
 Frequencies --    441.2633               445.3580               545.6894
 Red. masses --      1.5026                 2.1894                 6.6366
 Frc consts  --      0.1724                 0.2559                 1.1644
 IR Inten    --     35.9030                42.1424                 9.3991

                     22                     23                     24
                      A                      A                      A
 Frequencies --    560.0427               577.6921               625.5610
 Red. masses --      6.2879                 6.1824                 5.6382
 Frc consts  --      1.1620                 1.2156                 1.3000
 IR Inten    --      2.7316                22.7173                11.2072

                     25                     26                     27
                      A                      A                      A
 Frequencies --    632.6481               695.7220               715.3577
 Red. masses --      5.1098                 1.1988                 4.2353
 Frc consts  --      1.2050                 0.3419                 1.2770
 IR Inten    --     26.3735                51.7547                 5.6635

                     28                     29                     30
                      A                      A                      A
 Frequencies --    729.6941               759.0789               784.1024
 Red. masses --      2.0609                 5.3789                 8.4409
 Frc consts  --      0.6465                 1.8261                 3.0576
 IR Inten    --      0.8656                17.6261                30.7299

                     31                     32                     33
                      A                      A                      A
 Frequencies --    792.2042               830.0773               866.3043
 Red. masses --      8.1348                 2.2677                 3.7042
 Frc consts  --      3.0079                 0.9206                 1.6379
 IR Inten    --     17.8824                51.3900                 6.2476

                     34                     35                     36
                      A                      A                      A
 Frequencies --    883.5674               908.1570               976.3366
 Red. masses --      3.6892                 2.5294                 2.6926
 Frc consts  --      1.6969                 1.2291                 1.5122
 IR Inten    --     10.4086                12.9508                 7.3476

                     37                     38                     39
                      A                      A                      A
 Frequencies --    988.0574              1011.9620              1024.1586
 Red. masses --      2.5985                 1.3049                 1.9283
 Frc consts  --      1.4947                 0.7873                 1.1917
 IR Inten    --      2.3205                 3.1724                12.1469

                     40                     41                     42
                      A                      A                      A
 Frequencies --   1070.5690              1100.5691              1112.9316
 Red. masses --      2.7307                 3.7156                 2.1892
 Frc consts  --      1.8439                 2.6516                 1.5977
 IR Inten    --      4.3573                65.4793                29.6079

                     43                     44                     45
                      A                      A                      A
 Frequencies --   1116.5413              1161.5084              1165.7801
 Red. masses --      2.1859                 4.1324                 2.1341
 Frc consts  --      1.6056                 3.2847                 1.7088
 IR Inten    --     18.6474               376.0915                75.4190

                     46                     47                     48
                      A                      A                      A
 Frequencies --   1176.3100              1199.0460              1215.5802
 Red. masses --      2.5591                 1.2843                 2.4908
 Frc consts  --      2.0863                 1.0879                 2.1685
 IR Inten    --     42.3861                79.6390                42.1408

                     49                     50                     51
                      A                      A                      A
 Frequencies --   1226.5177              1244.8061              1259.7209
 Red. masses --      1.3431                 2.6133                 1.2419
 Frc consts  --      1.1905                 2.3859                 1.1611
 IR Inten    --     18.4845                12.0472                31.1230

                     52                     53                     54
                      A                      A                      A
 Frequencies --   1279.9582              1296.9296              1304.0295
 Red. masses --      1.4118                 1.2877                 1.4887
 Frc consts  --      1.3628                 1.2762                 1.4915
 IR Inten    --     22.3948                24.1627               143.0090

                     55                     56                     57
                      A                      A                      A
 Frequencies --   1331.3067              1333.0309              1361.0808
 Red. masses --      1.2440                 1.6664                 1.3957
 Frc consts  --      1.2990                 1.7446                 1.5233
 IR Inten    --     12.6903                 2.5196                 9.5342

                     58                     59                     60
                      A                      A                      A
 Frequencies --   1388.4728              1408.9608              1411.8886
 Red. masses --      1.5377                 1.9941                 1.5146
 Frc consts  --      1.7466                 2.3323                 1.7789
 IR Inten    --      5.3231                24.2438                 4.4792

                     61                     62                     63
                      A                      A                      A
 Frequencies --   1422.0861              1432.5426              1447.8349
 Red. masses --      1.4555                 2.6599                 1.6188
 Frc consts  --      1.7343                 3.2161                 1.9993
 IR Inten    --     56.1030                38.6468                20.1003

                     64                     65                     66
                      A                      A                      A
 Frequencies --   1454.1011              1481.1379              1498.1978
 Red. masses --      1.7551                 1.0858                 4.6448
 Frc consts  --      2.1864                 1.4034                 6.1427
 IR Inten    --     15.3184                 3.9698               161.5589

                     67                     68                     69
                      A                      A                      A
 Frequencies --   1689.8427              1781.6500              1796.2858
 Red. masses --      6.4204                 8.7864                10.0933
 Frc consts  --     10.8021                16.4325                19.1881
 IR Inten    --     85.6914               769.0397               649.4380

                     70                     71                     72
                      A                      A                      A
 Frequencies --   3026.5753              3047.8988              3081.2217
 Red. masses --      1.0600                 1.0816                 1.1077
 Frc consts  --      5.7210                 5.9202                 6.1961
 IR Inten    --     20.1676                62.6420                22.5098

                     73                     74                     75
                      A                      A                      A
 Frequencies --   3105.2954              3108.2139              3116.3914
 Red. masses --      1.0864                 1.0886                 1.0877
 Frc consts  --      6.1722                 6.1967                 6.2242
 IR Inten    --      6.5181                 8.3019                26.1420

                     76                     77                     78
                      A                      A                      A
 Frequencies --   3235.1358              3271.3102              3630.6106
 Red. masses --      1.0939                 1.0963                 1.0778
 Frc consts  --      6.7452                 6.9123                 8.3701
 IR Inten    --     53.9630                 2.3209                74.3801

                     79                     80                     81
                      A                      A                      A
 Frequencies --   3801.2320              3871.8952              3899.0213
 Red. masses --      1.0654                 1.0668                 1.0669
 Frc consts  --      9.0699                 9.4230                 9.5566
 IR Inten    --     63.4219                69.2127                57.7755

 - Thermochemistry -
 -------------------
 Temperature   298.150 Kelvin.  Pressure   1.00000 Atm.
 Atom     1 has atomic number  6 and mass  12.00000

 Molecular mass:   244.06954 amu.
 Principal axes and moments of inertia in atomic units:
                           1         2         3
     Eigenvalues --  2248.625805458.589416891.56273
           X            0.99995  -0.01012   0.00161
           Y            0.01013   0.99993  -0.00531
           Z           -0.00156   0.00532   0.99998
 This molecule is an asymmetric top.
 Rotational symmetry number  1.
 Warning -- assumption of classical behavior for rotation
           may cause significant error
 Rotational temperatures (Kelvin)      0.03852     0.01587     0.01257
 Rotational constants (GHZ):           0.80260     0.33062     0.26188
 Zero-point vibrational energy     599169.3 (Joules/Mol)
                                  143.20490 (Kcal/Mol)
 Warning -- explicit consideration of  23 degrees of freedom as
           vibrations may cause significant error
 Vibrational temperatures:     61.64    75.23    98.74   133.36   175.61
          (Kelvin)            210.88   246.25   286.90   301.49   362.04
                              366.74   402.72   422.37   438.24   491.16
                              516.24   583.90   604.93   634.88   640.77
                              785.13   805.78   831.17   900.04   910.24
                             1000.99  1029.24  1049.87  1092.15  1128.15
                             1139.81  1194.30  1246.42  1271.26  1306.64
                             1404.73  1421.59  1455.99  1473.54  1540.31
                             1583.47  1601.26  1606.45  1671.15  1677.30
                             1692.45  1725.16  1748.95  1764.69  1791.00
                             1812.46  1841.57  1865.99  1876.21  1915.45
                             1917.93  1958.29  1997.70  2027.18  2031.39
                             2046.06  2061.11  2083.11  2092.13  2131.03
                             2155.57  2431.31  2563.40  2584.45  4354.57
                             4385.25  4433.19  4467.83  4472.03  4483.79
                             4654.64  4706.69  5223.64  5469.13  5570.79
                             5609.82

 Zero-point correction=                           0.228212 (Hartree/Particle)
 Thermal correction to Energy=                    0.243596
 Thermal correction to Enthalpy=                  0.244540
 Thermal correction to Gibbs Free Energy=         0.185331
 Sum of electronic and zero-point Energies=           -909.991933
 Sum of electronic and thermal Energies=              -909.976548
 Sum of electronic and thermal Enthalpies=            -909.975604
 Sum of electronic and thermal Free Energies=         -910.034813

                     E (Thermal)             CV                S
                      KCal/Mol        Cal/Mol-Kelvin    Cal/Mol-Kelvin
 Total                  152.859             58.526            124.616
 Electronic               0.000              0.000              0.000
 Translational            0.889              2.981             42.378
 Rotational               0.889              2.981             32.803
 Vibrational            151.081             52.564             49.435
 Vibration     1          0.595              1.980              5.123
 Vibration     2          0.596              1.977              4.729
 Vibration     3          0.598              1.969              4.192
 Vibration     4          0.602              1.954              3.602
 Vibration     5          0.610              1.931              3.068
 Vibration     6          0.617              1.906              2.716
 Vibration     7          0.626              1.878              2.423
 Vibration     8          0.638              1.841              2.139
 Vibration     9          0.642              1.826              2.048
 Vibration    10          0.664              1.760              1.719
 Vibration    11          0.665              1.755              1.696
 Vibration    12          0.680              1.711              1.534
 Vibration    13          0.688              1.686              1.453
 Vibration    14          0.696              1.665              1.392
 Vibration    15          0.721              1.593              1.206
 Vibration    16          0.734              1.557              1.127
 Vibration    17          0.771              1.458              0.941
 Vibration    18          0.783              1.426              0.890
 Vibration    19          0.801              1.380              0.823
 Vibration    20          0.805              1.371              0.810
 Vibration    21          0.901              1.149              0.553
 Vibration    22          0.916              1.118              0.524
 Vibration    23          0.934              1.080              0.490

                           ! Non-Optimized Parameters !
 Normal termination of Gaussian 16 at Thu Oct 17 08:04:10 2024.
