 Gaussian 16, Revision C.01,
 Gaussian 16:  EM64L-G16RevC.01  3-Jul-2019

 ------------------------------------------------------
 # PBE1PBE/aug-cc-pVDZ opt freq EmpiricalDispersion=GD3
 ------------------------------------------------------

 ----
 blah
 ----
 Symbolic Z-matrix:
 Charge = -1 Multiplicity = 1

 SCF Done:  E(RPBE1PBE) =  -909.645255603     A.U. after   17 cycles
 SCF Done:  E(RPBE1PBE) =  -909.657400732     A.U. after   14 cycles
 SCF Done:  E(RPBE1PBE) =  -909.659113889     A.U. after   12 cycles
 SCF Done:  E(RPBE1PBE) =  -909.659882008     A.U. after   12 cycles
 SCF Done:  E(RPBE1PBE) =  -909.661736745     A.U. after   15 cycles
 SCF Done:  E(RPBE1PBE) =  -909.663334913     A.U. after   15 cycles
 SCF Done:  E(RPBE1PBE) =  -909.664978444     A.U. after   13 cycles
 SCF Done:  E(RPBE1PBE) =  -909.666448927     A.U. after   12 cycles
 SCF Done:  E(RPBE1PBE) =  -909.667168936     A.U. after   13 cycles
 SCF Done:  E(RPBE1PBE) =  -909.667504726     A.U. after   12 cycles
 SCF Done:  E(RPBE1PBE) =  -909.676877835     A.U. after   13 cycles
 SCF Done:  E(RPBE1PBE) =  -909.677071675     A.U. after   11 cycles
 SCF Done:  E(RPBE1PBE) =  -909.677492023     A.U. after   13 cycles
 SCF Done:  E(RPBE1PBE) =  -909.677512387     A.U. after   15 cycles
 SCF Done:  E(RPBE1PBE) =  -909.677723815     A.U. after   13 cycles
 SCF Done:  E(RPBE1PBE) =  -909.677775457     A.U. after   11 cycles
 SCF Done:  E(RPBE1PBE) =  -909.677781758     A.U. after   11 cycles
 SCF Done:  E(RPBE1PBE) =  -909.677782594     A.U. after   10 cycles
 SCF Done:  E(RPBE1PBE) =  -909.677782674     A.U. after    8 cycles
 Optimization completed.
    -- Stationary point found.
 Normal termination of Gaussian 16 at Thu Oct 24 09:18:29 2024.

 ----------------------------------------------------------------------
 #N Geom=AllCheck Guess=TCheck SCRF=Check GenChk RPBE1PBE/Aug-CC-pVDZ F
 req
 ----------------------------------------------------------------------

 Structure from the checkpoint file:  "/scr/Gau-81516.chk"
 ----
 blah
 ----
 Charge = -1 Multiplicity = 1

                         Standard orientation:
 ---------------------------------------------------------------------
 Center     Atomic      Atomic             Coordinates (Angstroms)
 Number     Number       Type             X           Y           Z
 ---------------------------------------------------------------------
      1          6           0       -2.654274   -0.601767    0.239602
      2          6           0       -1.200647   -0.892694    0.640571
      3          6           0       -0.421545   -0.303926   -0.546885
      4          8           0       -1.014140   -2.263693    0.816978
      5          1           0       -0.935243   -0.312648    1.542804
      6          8           0       -1.137465    0.869968   -0.881894
      7          1           0       -0.437570   -1.027306   -1.379810
      8          7           0        0.960422    0.039387   -0.272424
      9          6           0       -2.535696    0.643417   -0.650788
     10          1           0       -3.286876   -0.402474    1.119284
     11          8           0       -3.167011   -1.689586   -0.498709
     12          6           0       -3.089418    1.921216   -0.053995
     13          1           0       -3.038342    0.430844   -1.608414
     14          8           0       -2.468874    2.248259    1.173424
     15          1           0       -4.161861    1.794497    0.148633
     16          1           0       -2.971347    2.740644   -0.785422
     17          1           0       -2.590295   -2.431192   -0.236213
     18          1           0       -0.068121   -2.417050    0.494016
     19          1           0       -1.518110    2.178821    1.021308
     20          6           0        1.416642    1.329441   -0.248172
     21          6           0        2.728140    1.586986   -0.060883
     22          6           0        3.673838    0.473835    0.083066
     23          7           0        3.164520   -0.802562    0.057673
     24          6           0        1.872062   -1.035843   -0.097508
     25          1           0        0.668577    2.103103   -0.404116
     26          1           0        3.103047    2.608413   -0.041221
     27          8           0        4.885311    0.694699    0.221238
     28          8           0        1.355545   -2.190576   -0.105742
 ---------------------------------------------------------------------

 SCF Done:  E(RPBE1PBE) =  -909.677782674     A.U. after    1 cycles

 The electronic state is 1-A.
 Alpha  occ. eigenvalues --  -19.16007 -19.15042 -19.12729 -19.10989 -19.05483
 Alpha  occ. eigenvalues --  -19.02750 -14.32873 -14.22363 -10.22452 -10.21759
 Alpha  occ. eigenvalues --  -10.20418 -10.20359 -10.19258 -10.18630 -10.17514
 Alpha  occ. eigenvalues --  -10.16578 -10.10410  -1.01965  -0.98074  -0.97133
 Alpha  occ. eigenvalues --   -0.95091  -0.93071  -0.89553  -0.86079  -0.77086
 Alpha  occ. eigenvalues --   -0.71262  -0.69550  -0.66156  -0.60405  -0.55410
 Alpha  occ. eigenvalues --   -0.54404  -0.51462  -0.49312  -0.46808  -0.44990
 Alpha  occ. eigenvalues --   -0.43464  -0.42995  -0.42702  -0.40648  -0.38719
 Alpha  occ. eigenvalues --   -0.37913  -0.36199  -0.34593  -0.33900  -0.33766
 Alpha  occ. eigenvalues --   -0.32043  -0.31067  -0.30469  -0.29399  -0.28028
 Alpha  occ. eigenvalues --   -0.27387  -0.27086  -0.25033  -0.24807  -0.23054
 Alpha  occ. eigenvalues --   -0.21341  -0.20318  -0.19359  -0.18738  -0.15811
 Alpha  occ. eigenvalues --   -0.13534  -0.11846  -0.10797  -0.10478
 Alpha virt. eigenvalues --    0.07105   0.08536   0.08787   0.09693   0.10809
 Alpha virt. eigenvalues --    0.11081   0.11388   0.11800   0.12033   0.12529
 Alpha virt. eigenvalues --    0.13780   0.14961   0.15187   0.15422   0.15683

 Mulliken charges:
               1
     1  C    0.972127
     2  C    0.875050
     3  C    0.608532
     4  O   -0.767172
     5  H   -0.511981
     6  O   -0.769408
     7  H   -0.584885
     8  N    0.081830
     9  C    1.001854
    10  H   -0.374306
    11  O   -0.722324
    12  C    1.159478
    13  H   -0.528905
    14  O   -0.524772
    15  H   -0.275430
    16  H   -0.260662
    17  H    0.188442
    18  H    0.299282
    19  H    0.167288
    20  C    0.710919
    21  C    0.852854
    22  C    0.471423
    23  N   -0.508781
    24  C    0.483209
    25  H   -0.796949
    26  H   -0.587300
    27  O   -0.788136
    28  O   -0.871276
 Sum of Mulliken charges =  -1.00000

 Dipole moment (field-independent basis, Debye):
    X=            -11.6231    Y=              4.2535    Z=             -1.4609  Tot=             12.4629
 Quadrupole moment (field-independent basis, Debye-Ang):
   XX=           -178.9672   YY=           -119.7037   ZZ=           -105.4066
   XY=             -0.0165   XZ=             -0.3104   YZ=             -1.9528

  Exact polarizability:     204.917      10.652     155.819       6.962       0.434     107.370
 Approx polarizability:     268.135      22.800     224.495      12.749       3.111     163.542

                      1                      2                      3
                      A                      A                      A
 Frequencies --     26.6205                45.3404                63.7710
 Red. masses --      6.5711                 8.6450                 5.8160
 Frc consts  --      0.0027                 0.0105                 0.0139
 IR Inten    --      2.2477                 0.6991                 6.1549

                      4                      5                      6
                      A                      A                      A
 Frequencies --     78.9868               120.9376               171.4709
 Red. masses --      8.6964                 4.8648                 6.3564
 Frc consts  --      0.0320                 0.0419                 0.1101
 IR Inten    --      1.6482                 1.9602                 3.7286

                      7                      8                      9
                      A                      A                      A
 Frequencies --    174.5107               211.5702               248.2361
 Red. masses --      7.0781                 8.0774                 5.8586
 Frc consts  --      0.1270                 0.2130                 0.2127
 IR Inten    --      3.6304                 1.1925                12.9428

                     10                     11                     12
                      A                      A                      A
 Frequencies --    264.1344               290.5120               325.2209
 Red. masses --      4.7323                 6.6616                 3.4242
 Frc consts  --      0.1945                 0.3313                 0.2134
 IR Inten    --     22.0092                11.7098                 2.7797

                     13                     14                     15
                      A                      A                      A
 Frequencies --    338.2080               370.5071               413.2035
 Red. masses --      5.7897                 5.4791                 3.0504
 Frc consts  --      0.3902                 0.4432                 0.3069
 IR Inten    --     16.0281                 6.0198                16.7198

                     16                     17                     18
                      A                      A                      A
 Frequencies --    428.6294               456.5722               466.3866
 Red. masses --      2.7792                 7.4217                 1.3845
 Frc consts  --      0.3008                 0.9115                 0.1774
 IR Inten    --     40.9980                28.8907                62.1056

                     19                     20                     21
                      A                      A                      A
 Frequencies --    541.8895               556.4972               582.4824
 Red. masses --      6.3705                 5.9402                 9.1875
 Frc consts  --      1.1022                 1.0839                 1.8366
 IR Inten    --     10.4607                 5.2888                 7.3317

                     22                     23                     24
                      A                      A                      A
 Frequencies --    591.4058               631.2327               661.3851
 Red. masses --      1.1288                 5.7737                 5.7710
 Frc consts  --      0.2326                 1.3554                 1.4873
 IR Inten    --     79.1034                20.7863                 9.1380

                     25                     26                     27
                      A                      A                      A
 Frequencies --    721.8118               730.4266               734.7133
 Red. masses --      1.7143                 5.4941                 4.6619
 Frc consts  --      0.5262                 1.7270                 1.4827
 IR Inten    --     11.5409                24.1150                16.0903

                     28                     29                     30
                      A                      A                      A
 Frequencies --    784.9819               792.2938               834.0850
 Red. masses --      8.6149                10.3393                 3.4855
 Frc consts  --      3.1277                 3.8240                 1.4287
 IR Inten    --      7.5242                13.9823                37.4069

                     31                     32                     33
                      A                      A                      A
 Frequencies --    886.8771               906.0101               924.9162
 Red. masses --      3.2159                 3.3556                 2.3283
 Frc consts  --      1.4903                 1.6229                 1.1735
 IR Inten    --      2.1051                 6.5533                18.1333

                     34                     35                     36
                      A                      A                      A
 Frequencies --    934.9019               958.5966               962.8642
 Red. masses --      1.7696                 1.3287                 1.3333
 Frc consts  --      0.9113                 0.7193                 0.7283
 IR Inten    --     10.3477                29.2499                28.9503

                     37                     38                     39
                      A                      A                      A
 Frequencies --    999.7029              1037.2585              1064.1928
 Red. masses --      3.9713                 2.8884                 2.9428
 Frc consts  --      2.3385                 1.8310                 1.9636
 IR Inten    --     23.5491                17.3698                23.4851

                     40                     41                     42
                      A                      A                      A
 Frequencies --   1085.6773              1104.7948              1123.8357
 Red. masses --      3.4122                 1.7669                 1.9396
 Frc consts  --      2.3697                 1.2706                 1.4433
 IR Inten    --      9.6305                52.0058                63.3751

                     43                     44                     45
                      A                      A                      A
 Frequencies --   1136.7438              1165.0322              1175.6036
 Red. masses --      3.6336                 3.6204                 3.2420
 Frc consts  --      2.7664                 2.8952                 2.6399
 IR Inten    --    109.3364               121.4071                51.0915

                     46                     47                     48
                      A                      A                      A
 Frequencies --   1220.1966              1220.5146              1228.4976
 Red. masses --      1.4274                 1.6289                 1.4074
 Frc consts  --      1.2521                 1.4296                 1.2514
 IR Inten    --     17.6161                24.6777                26.0121

                     49                     50                     51
                      A                      A                      A
 Frequencies --   1276.4435              1294.1649              1297.3901
 Red. masses --      1.4283                 1.3542                 1.4569
 Frc consts  --      1.3711                 1.3363                 1.4448
 IR Inten    --     18.9485                62.7757                27.7605

                     52                     53                     54
                      A                      A                      A
 Frequencies --   1310.1666              1339.7279              1345.0774
 Red. masses --      1.7773                 1.6492                 2.1785
 Frc consts  --      1.7975                 1.7440                 2.3222
 IR Inten    --     51.2085               118.0488               121.9713

                     55                     56                     57
                      A                      A                      A
 Frequencies --   1353.4514              1358.2676              1372.1569
 Red. masses --      1.4131                 5.0100                 1.4990
 Frc consts  --      1.5251                 5.4457                 1.6629
 IR Inten    --      2.3905                41.9391                10.4434

                     58                     59                     60
                      A                      A                      A
 Frequencies --   1391.7400              1409.5778              1421.3285
 Red. masses --      1.3588                 1.5519                 1.4669
 Frc consts  --      1.5507                 1.8168                 1.7460
 IR Inten    --    105.4568                42.9257                64.6736

                     61                     62                     63
                      A                      A                      A
 Frequencies --   1431.8135              1477.1080              1485.7783
 Red. masses --      1.6132                 1.0893                 4.1300
 Frc consts  --      1.9485                 1.4003                 5.3716
 IR Inten    --    131.7809                 2.6272                24.9518

                     64                     65                     66
                      A                      A                      A
 Frequencies --   1513.5603              1617.9141              1703.0028
 Red. masses --      1.5526                 4.2981                10.2007
 Frc consts  --      2.0956                 6.6288                17.4306
 IR Inten    --    694.2199               428.8087               196.2682

                     67                     68                     69
                      A                      A                      A
 Frequencies --   1717.4942              2930.0051              3013.0489
 Red. masses --      7.1582                 1.0758                 1.0748
 Frc consts  --     12.4407                 5.4417                 5.7489
 IR Inten    --    842.4197              1380.4474                61.3700

                     70                     71                     72
                      A                      A                      A
 Frequencies --   3013.8752              3036.8269              3047.2060
 Red. masses --      1.0768                 1.0853                 1.0868
 Frc consts  --      5.7629                 5.8973                 5.9457
 IR Inten    --     58.8454                30.3959                46.2357

                     73                     74                     75
                      A                      A                      A
 Frequencies --   3051.9847              3108.8885              3225.4602
 Red. masses --      1.0857                 1.0960                 1.0869
 Frc consts  --      5.9586                 6.2411                 6.6622
 IR Inten    --     74.2690                36.6988                 1.9805

                     76                     77                     78
                      A                      A                      A
 Frequencies --   3247.3602              3630.4227              3817.9706
 Red. masses --      1.0990                 1.0647                 1.0655
 Frc consts  --      6.8285                 8.2682                 9.1510
 IR Inten    --     15.6902               123.9167                63.9804

 - Thermochemistry -
 -------------------
 Temperature   298.150 Kelvin.  Pressure   1.00000 Atm.
 Atom     1 has atomic number  6 and mass  12.00000

 Molecular mass:   243.06171 amu.
 Principal axes and moments of inertia in atomic units:
                           1         2         3
     Eigenvalues --  2008.153225767.850857227.41336
           X            1.00000  -0.00237   0.00050
           Y            0.00237   0.99999  -0.00350
           Z           -0.00049   0.00351   0.99999
 This molecule is an asymmetric top.
 Rotational symmetry number  1.
 Warning -- assumption of classical behavior for rotation
           may cause significant error
 Rotational temperatures (Kelvin)      0.04313     0.01502     0.01198
 Rotational constants (GHZ):           0.89871     0.31290     0.24971
 Zero-point vibrational energy     562444.9 (Joules/Mol)
                                  134.42757 (Kcal/Mol)
 Warning -- explicit consideration of  22 degrees of freedom as
           vibrations may cause significant error
 Vibrational temperatures:     38.30    65.23    91.75   113.64   174.00
          (Kelvin)            246.71   251.08   304.40   357.16   380.03
                              417.98   467.92   486.61   533.08   594.51
                              616.70   656.91   671.03   779.66   800.68
                              838.06   850.90   908.20   951.59  1038.53
                             1050.92  1057.09  1129.41  1139.93  1200.06
                             1276.02  1303.55  1330.75  1345.12  1379.21
                             1385.35  1438.35  1492.38  1531.14  1562.05
                             1589.55  1616.95  1635.52  1676.22  1691.43
                             1755.59  1756.05  1767.53  1836.52  1862.01
                             1866.66  1885.04  1927.57  1935.27  1947.31
                             1954.24  1974.23  2002.40  2028.07  2044.97
                             2060.06  2125.23  2137.70  2177.68  2327.82
                             2450.24  2471.09  4215.62  4335.11  4336.29
                             4369.32  4384.25  4391.13  4473.00  4640.72
                             4672.23  5223.37  5493.21

 Zero-point correction=                           0.214224 (Hartree/Particle)
 Thermal correction to Energy=                    0.228628
 Thermal correction to Enthalpy=                  0.229572
 Thermal correction to Gibbs Free Energy=         0.171534
 Sum of electronic and zero-point Energies=           -909.463559
 Sum of electronic and thermal Energies=              -909.449155
 Sum of electronic and thermal Enthalpies=            -909.448210
 Sum of electronic and thermal Free Energies=         -909.506249

                     E (Thermal)             CV                S
                      KCal/Mol        Cal/Mol-Kelvin    Cal/Mol-Kelvin
 Total                  143.466             55.256            122.152
 Electronic               0.000              0.000              0.000
 Translational            0.889              2.981             42.365
 Rotational               0.889              2.981             32.793
 Vibrational            141.689             49.294             46.994
 Vibration     1          0.593              1.984              6.067
 Vibration     2          0.595              1.979              5.011
 Vibration     3          0.597              1.972              4.337
 Vibration     4          0.600              1.963              3.916
 Vibration     5          0.609              1.932              3.085
 Vibration     6          0.626              1.878              2.419
 Vibration     7          0.627              1.874              2.386
 Vibration     8          0.643              1.823              2.030
 Vibration     9          0.662              1.766              1.743
 Vibration    10          0.671              1.739              1.634
 Vibration    11          0.686              1.691              1.471
 Vibration    12          0.709              1.625              1.284
 Vibration    13          0.719              1.599              1.221
 Vibration    14          0.743              1.533              1.078
 Vibration    15          0.777              1.442              0.915
 Vibration    16          0.790              1.408              0.863
 Vibration    17          0.815              1.346              0.776
 Vibration    18          0.824              1.325              0.748
 Vibration    19          0.897              1.157              0.561
 Vibration    20          0.912              1.125              0.531
 Vibration    21          0.939              1.069              0.481
 Vibration    22          0.949              1.050              0.465

 Optimization completed.
    -- Stationary point found.
 Normal termination of Gaussian 16 at Thu Oct 24 09:32:55 2024.
