 Gaussian 16, Revision C.01,
 Gaussian 16:  EM64L-G16RevC.01  3-Jul-2019

 ------------------------------------------------------
 # PBE1PBE/aug-cc-pVDZ opt freq EmpiricalDispersion=GD3
 ------------------------------------------------------

 ----
 blah
 ----
 Symbolic Z-matrix:
 Charge = -1 Multiplicity = 1

 SCF Done:  E(RPBE1PBE) =  -909.670859354     A.U. after   14 cycles
 SCF Done:  E(RPBE1PBE) =  -909.682980416     A.U. after   12 cycles
 SCF Done:  E(RPBE1PBE) =  -909.684613791     A.U. after   12 cycles
 SCF Done:  E(RPBE1PBE) =  -909.684838190     A.U. after   13 cycles
 SCF Done:  E(RPBE1PBE) =  -909.685162979     A.U. after   12 cycles
 SCF Done:  E(RPBE1PBE) =  -909.685450047     A.U. after   15 cycles
 SCF Done:  E(RPBE1PBE) =  -909.685625544     A.U. after   12 cycles
 SCF Done:  E(RPBE1PBE) =  -909.685734650     A.U. after   12 cycles
 SCF Done:  E(RPBE1PBE) =  -909.685970476     A.U. after   11 cycles
 SCF Done:  E(RPBE1PBE) =  -909.686297624     A.U. after   12 cycles
 SCF Done:  E(RPBE1PBE) =  -909.686478497     A.U. after   12 cycles
 SCF Done:  E(RPBE1PBE) =  -909.686530133     A.U. after   11 cycles
 SCF Done:  E(RPBE1PBE) =  -909.686580400     A.U. after   15 cycles
 SCF Done:  E(RPBE1PBE) =  -909.686575440     A.U. after   10 cycles
 SCF Done:  E(RPBE1PBE) =  -909.686604019     A.U. after   12 cycles
 SCF Done:  E(RPBE1PBE) =  -909.686608221     A.U. after   11 cycles
 SCF Done:  E(RPBE1PBE) =  -909.686609394     A.U. after   10 cycles
 SCF Done:  E(RPBE1PBE) =  -909.686609942     A.U. after   10 cycles
 SCF Done:  E(RPBE1PBE) =  -909.686610003     A.U. after    8 cycles
 Optimization completed.
    -- Stationary point found.
 Normal termination of Gaussian 16 at Sun Oct 27 01:52:10 2024.

 ----------------------------------------------------------------------
 #N Geom=AllCheck Guess=TCheck SCRF=Check GenChk RPBE1PBE/Aug-CC-pVDZ F
 req
 ----------------------------------------------------------------------

 Structure from the checkpoint file:  "/scr/Gau-4563.chk"
 ----
 blah
 ----
 Charge = -1 Multiplicity = 1

                         Standard orientation:
 ---------------------------------------------------------------------
 Center     Atomic      Atomic             Coordinates (Angstroms)
 Number     Number       Type             X           Y           Z
 ---------------------------------------------------------------------
      1          6           0       -2.273017    0.044066    0.778248
      2          6           0       -1.339537   -1.167168    0.814682
      3          6           0       -0.409648   -0.927776   -0.382634
      4          8           0       -2.099694   -2.349672    0.611130
      5          1           0       -0.766502   -1.240173    1.751618
      6          8           0       -1.158561   -0.013101   -1.258937
      7          1           0       -0.287289   -1.873829   -0.925320
      8          6           0        0.945589   -0.393064   -0.080104
      9          6           0       -2.427101    0.277705   -0.718274
     10          1           0       -1.793088    0.921347    1.233626
     11          8           0       -3.545459   -0.201641    1.374397
     12          6           0       -2.767175    1.707144   -1.097645
     13          1           0       -3.207945   -0.405642   -1.104562
     14          8           0       -1.758031    2.603292   -0.686264
     15          1           0       -3.702536    2.006091   -0.602668
     16          1           0       -2.921943    1.759279   -2.190213
     17          1           0       -3.475933   -0.006209    2.312545
     18          1           0       -2.971787   -2.171316    0.987794
     19          1           0       -0.919633    2.174902   -0.915475
     20          6           0        1.188390    0.684575    0.764295
     21          7           0        2.355838    1.238363    1.088477
     22          6           0        3.472200    0.686940    0.524352
     23          7           0        3.283784   -0.400989   -0.339173
     24          6           0        2.088777   -1.006463   -0.701178
     25          1           0        0.324356    1.168764    1.240334
     26          1           0        4.123847   -0.792303   -0.744218
     27          8           0        4.625656    1.079707    0.724972
     28          8           0        2.092367   -1.973371   -1.477679
 ---------------------------------------------------------------------

 SCF Done:  E(RPBE1PBE) =  -909.686610003     A.U. after    2 cycles

 The electronic state is 1-A.
 Alpha  occ. eigenvalues --  -19.16997 -19.13048 -19.12934 -19.12637 -19.04517
 Alpha  occ. eigenvalues --  -19.03423 -14.29086 -14.23278 -10.20256 -10.19900
 Alpha  occ. eigenvalues --  -10.19200 -10.18781 -10.18682 -10.18526 -10.17035
 Alpha  occ. eigenvalues --  -10.14387 -10.09052  -1.00547  -0.97782  -0.96058
 Alpha  occ. eigenvalues --   -0.94761  -0.93482  -0.90947  -0.82132  -0.77261
 Alpha  occ. eigenvalues --   -0.70662  -0.70438  -0.64426  -0.59339  -0.54319
 Alpha  occ. eigenvalues --   -0.52739  -0.51196  -0.49534  -0.47046  -0.44573
 Alpha  occ. eigenvalues --   -0.43718  -0.41261  -0.40683  -0.38771  -0.38479
 Alpha  occ. eigenvalues --   -0.37887  -0.35000  -0.34221  -0.33275  -0.32361
 Alpha  occ. eigenvalues --   -0.31206  -0.30567  -0.29084  -0.28444  -0.27678
 Alpha  occ. eigenvalues --   -0.26953  -0.25944  -0.25486  -0.24855  -0.21771
 Alpha  occ. eigenvalues --   -0.20162  -0.19649  -0.19347  -0.17519  -0.14686
 Alpha  occ. eigenvalues --   -0.14218  -0.13583  -0.12102  -0.08160
 Alpha virt. eigenvalues --    0.06014   0.08237   0.09287   0.10202   0.11032
 Alpha virt. eigenvalues --    0.11289   0.11645   0.11818   0.12049   0.13109
 Alpha virt. eigenvalues --    0.13425   0.14250   0.15098   0.15922   0.16117

 Mulliken charges:
               1
     1  C    0.523108
     2  C    1.173952
     3  C    0.897296
     4  O   -0.709137
     5  H   -0.455894
     6  O   -0.900136
     7  H   -0.637255
     8  C    1.272080
     9  C    0.785007
    10  H   -0.513865
    11  O   -0.636510
    12  C    1.168545
    13  H   -0.537732
    14  O   -0.573650
    15  H   -0.254305
    16  H   -0.222774
    17  H    0.134939
    18  H    0.138501
    19  H    0.221223
    20  C    0.263457
    21  N   -0.575194
    22  C    0.753842
    23  N   -0.384297
    24  C    0.559934
    25  H   -0.816808
    26  H   -0.101492
    27  O   -0.730985
    28  O   -0.841850
 Sum of Mulliken charges =  -1.00000

 Dipole moment (field-independent basis, Debye):
    X=            -11.2222    Y=             -0.7728    Z=              1.5758  Tot=             11.3586
 Quadrupole moment (field-independent basis, Debye-Ang):
   XX=           -151.7614   YY=           -129.6628   ZZ=           -105.5561
   XY=             -9.6899   XZ=            -12.2179   YZ=            -10.1727

  Exact polarizability:     199.835       8.850     144.052       3.908      16.201     127.476
 Approx polarizability:     253.102      18.914     216.637       7.893      40.117     195.692

                      1                      2                      3
                      A                      A                      A
 Frequencies --     20.9265                35.7498                62.7473
 Red. masses --      7.2210                 7.3270                 6.7561
 Frc consts  --      0.0019                 0.0055                 0.0157
 IR Inten    --      0.1307                 0.9427                 1.1820

                      4                      5                      6
                      A                      A                      A
 Frequencies --     94.7992               120.4287               142.7105
 Red. masses --      6.9782                 5.3086                 6.5581
 Frc consts  --      0.0369                 0.0454                 0.0787
 IR Inten    --      3.7634                 8.3334                 0.7606

                      7                      8                      9
                      A                      A                      A
 Frequencies --    165.1561               170.1032               222.7107
 Red. masses --      9.4524                 8.8852                 5.2369
 Frc consts  --      0.1519                 0.1515                 0.1530
 IR Inten    --      4.2174                 4.7193                 4.4506

                     10                     11                     12
                      A                      A                      A
 Frequencies --    237.5963               247.7355               270.2240
 Red. masses --      2.4018                 2.8193                 1.8843
 Frc consts  --      0.0799                 0.1019                 0.0811
 IR Inten    --      0.6327                 4.7999                21.1593

                     13                     14                     15
                      A                      A                      A
 Frequencies --    295.0350               317.9727               364.3874
 Red. masses --      4.2460                 6.4828                 3.4561
 Frc consts  --      0.2178                 0.3862                 0.2704
 IR Inten    --     20.9487                11.8789                 4.0519

                     16                     17                     18
                      A                      A                      A
 Frequencies --    406.3247               435.6328               473.6545
 Red. masses --     13.0124                 3.1826                 2.9754
 Frc consts  --      1.2658                 0.3559                 0.3933
 IR Inten    --     15.4298                 5.0107                 3.7462

                     19                     20                     21
                      A                      A                      A
 Frequencies --    486.0747               535.3665               552.1118
 Red. masses --      1.2165                 1.2555                 7.9890
 Frc consts  --      0.1693                 0.2120                 1.4348
 IR Inten    --    124.6534               122.0081                16.9105

                     22                     23                     24
                      A                      A                      A
 Frequencies --    569.7215               595.4696               619.0399
 Red. masses --      3.8548                 7.3301                 6.1824
 Frc consts  --      0.7372                 1.5314                 1.3959
 IR Inten    --     22.3794                46.9559                14.0302

                     25                     26                     27
                      A                      A                      A
 Frequencies --    649.6546               700.3382               715.4480
 Red. masses --      4.7327                 1.1744                 4.5479
 Frc consts  --      1.1769                 0.3394                 1.3716
 IR Inten    --      3.1495                50.5784                15.4686

                     28                     29                     30
                      A                      A                      A
 Frequencies --    757.2099               786.9058               809.3862
 Red. masses --      5.5423                10.6272                 8.4625
 Frc consts  --      1.8723                 3.8772                 3.2663
 IR Inten    --     14.8674                 1.2891                 3.5218

                     31                     32                     33
                      A                      A                      A
 Frequencies --    812.8337               860.3360               875.0465
 Red. masses --     10.9486                 4.4655                 2.7347
 Frc consts  --      4.2620                 1.9474                 1.2338
 IR Inten    --     25.3392                19.0130                23.4826

                     34                     35                     36
                      A                      A                      A
 Frequencies --    891.6963               952.0061               984.2848
 Red. masses --      3.8095                 3.0069                 1.8430
 Frc consts  --      1.7847                 1.6056                 1.0520
 IR Inten    --     34.9831               126.1016                14.6533

                     37                     38                     39
                      A                      A                      A
 Frequencies --    987.0902               993.4534              1041.0736
 Red. masses --      2.2349                 2.1145                 2.7986
 Frc consts  --      1.2830                 1.2295                 1.7871
 IR Inten    --     10.7269                41.2210                 9.9639

                     40                     41                     42
                      A                      A                      A
 Frequencies --   1073.1223              1097.5914              1108.1454
 Red. masses --      2.8253                 1.9515                 3.0115
 Frc consts  --      1.9170                 1.3851                 2.1788
 IR Inten    --     55.9272                48.9573                31.7682

                     43                     44                     45
                      A                      A                      A
 Frequencies --   1127.4396              1156.5964              1176.7358
 Red. masses --      2.4888                 3.4616                 2.3985
 Frc consts  --      1.8639                 2.7283                 1.9568
 IR Inten    --     49.9655               186.9013                 0.9087

                     46                     47                     48
                      A                      A                      A
 Frequencies --   1198.0538              1208.1155              1213.9110
 Red. masses --      2.7092                 1.5297                 1.2694
 Frc consts  --      2.2911                 1.3154                 1.1021
 IR Inten    --     38.0348                27.0029                22.5982

                     49                     50                     51
                      A                      A                      A
 Frequencies --   1243.0686              1295.2574              1308.7940
 Red. masses --      1.3786                 1.2533                 1.3467
 Frc consts  --      1.2551                 1.2388                 1.3592
 IR Inten    --     32.5044                13.7172                37.4053

                     52                     53                     54
                      A                      A                      A
 Frequencies --   1321.8382              1330.5893              1343.1278
 Red. masses --      1.5301                 1.3736                 1.4305
 Frc consts  --      1.5752                 1.4329                 1.5205
 IR Inten    --     45.1552                13.6736                 3.8436

                     55                     56                     57
                      A                      A                      A
 Frequencies --   1350.7423              1354.5429              1363.8500
 Red. masses --      2.0309                 2.5568                 1.3662
 Frc consts  --      2.1832                 2.7640                 1.4972
 IR Inten    --     54.6734                60.9930                 1.3555

                     58                     59                     60
                      A                      A                      A
 Frequencies --   1375.8119              1391.9889              1414.4976
 Red. masses --      1.4757                 1.6034                 2.4396
 Frc consts  --      1.6458                 1.8305                 2.8759
 IR Inten    --     32.5260                73.2134                10.7125

                     61                     62                     63
                      A                      A                      A
 Frequencies --   1423.3646              1447.8600              1478.7754
 Red. masses --      1.3920                 1.7654                 1.0847
 Frc consts  --      1.6616                 2.1804                 1.3975
 IR Inten    --     14.5598                 3.7297                 2.1888

                     64                     65                     66
                      A                      A                      A
 Frequencies --   1507.6698              1627.1108              1708.8826
 Red. masses --      7.0307                 6.0996                 7.3308
 Frc consts  --      9.4159                 9.5145                12.6133
 IR Inten    --     97.0107               436.3678               900.0302

                     67                     68                     69
                      A                      A                      A
 Frequencies --   1726.7791              2990.0128              3016.3663
 Red. masses --     11.2015                 1.0796                 1.0706
 Frc consts  --     19.6788                 5.6865                 5.7390
 IR Inten    --    839.2403                38.8551               123.0084

                     70                     71                     72
                      A                      A                      A
 Frequencies --   3057.2885              3088.5209              3097.1606
 Red. masses --      1.0864                 1.0873                 1.0913
 Frc consts  --      5.9831                 6.1109                 6.1676
 IR Inten    --     32.5599                56.2925                 1.7639

                     73                     74                     75
                      A                      A                      A
 Frequencies --   3097.6239              3108.8796              3638.0219
 Red. masses --      1.0920                 1.0858                 1.0769
 Frc consts  --      6.1732                 6.1832                 8.3976
 IR Inten    --     62.9316                 8.6789                19.7268

                     76                     77                     78
                      A                      A                      A
 Frequencies --   3760.1488              3784.3439              3886.5199
 Red. masses --      1.0654                 1.0653                 1.0666
 Frc consts  --      8.8749                 8.9884                 9.4926
 IR Inten    --     89.6274                54.1570                39.4526

 - Thermochemistry -
 -------------------
 Temperature   298.150 Kelvin.  Pressure   1.00000 Atm.
 Atom     1 has atomic number  6 and mass  12.00000

 Molecular mass:   243.06171 amu.
 Principal axes and moments of inertia in atomic units:
                           1         2         3
     Eigenvalues --  2215.444776202.483696949.58408
           X            0.99996  -0.00893  -0.00278
           Y            0.00885   0.99956  -0.02844
           Z            0.00303   0.02841   0.99959
 This molecule is an asymmetric top.
 Rotational symmetry number  1.
 Warning -- assumption of classical behavior for rotation
           may cause significant error
 Rotational temperatures (Kelvin)      0.03910     0.01396     0.01246
 Rotational constants (GHZ):           0.81462     0.29097     0.25969
 Zero-point vibrational energy     563187.5 (Joules/Mol)
                                  134.60503 (Kcal/Mol)
 Warning -- explicit consideration of  24 degrees of freedom as
           vibrations may cause significant error
 Vibrational temperatures:     30.11    51.44    90.28   136.39   173.27
          (Kelvin)            205.33   237.62   244.74   320.43   341.85
                              356.44   388.79   424.49   457.49   524.27
                              584.61   626.78   681.48   699.35   770.27
                              794.37   819.70   856.75   890.66   934.71
                             1007.63  1029.37  1089.46  1132.18  1164.53
                             1169.49  1237.83  1259.00  1282.95  1369.72
                             1416.17  1420.20  1429.36  1497.87  1543.98
                             1579.19  1594.37  1622.13  1664.08  1693.06
                             1723.73  1738.21  1746.55  1788.50  1863.59
                             1883.06  1901.83  1914.42  1932.46  1943.42
                             1948.89  1962.28  1979.49  2002.76  2035.15
                             2047.90  2083.15  2127.63  2169.20  2341.05
                             2458.70  2484.45  4301.96  4339.88  4398.76
                             4443.69  4456.12  4456.79  4472.98  5234.30
                             5410.02  5444.83  5591.84

 Zero-point correction=                           0.214507 (Hartree/Particle)
 Thermal correction to Energy=                    0.229697
 Thermal correction to Enthalpy=                  0.230641
 Thermal correction to Gibbs Free Energy=         0.170640
 Sum of electronic and zero-point Energies=           -909.472103
 Sum of electronic and thermal Energies=              -909.456913
 Sum of electronic and thermal Enthalpies=            -909.455969
 Sum of electronic and thermal Free Energies=         -909.515970

                     E (Thermal)             CV                S
                      KCal/Mol        Cal/Mol-Kelvin    Cal/Mol-Kelvin
 Total                  144.137             57.245            126.283
 Electronic               0.000              0.000              0.000
 Translational            0.889              2.981             42.365
 Rotational               0.889              2.981             32.923
 Vibrational            142.360             51.283             50.994
 Vibration     1          0.593              1.986              6.544
 Vibration     2          0.594              1.982              5.482
 Vibration     3          0.597              1.972              4.369
 Vibration     4          0.603              1.953              3.559
 Vibration     5          0.609              1.932              3.093
 Vibration     6          0.616              1.910              2.767
 Vibration     7          0.624              1.885              2.490
 Vibration     8          0.625              1.879              2.434
 Vibration     9          0.648              1.806              1.937
 Vibration    10          0.656              1.783              1.821
 Vibration    11          0.661              1.767              1.747
 Vibration    12          0.674              1.728              1.595
 Vibration    13          0.689              1.683              1.445
 Vibration    14          0.704              1.639              1.321
 Vibration    15          0.738              1.546              1.103
 Vibration    16          0.771              1.456              0.940
 Vibration    17          0.796              1.393              0.840
 Vibration    18          0.830              1.308              0.727
 Vibration    19          0.842              1.281              0.694
 Vibration    20          0.890              1.172              0.575
 Vibration    21          0.907              1.135              0.540
 Vibration    22          0.926              1.097              0.505
 Vibration    23          0.953              1.041              0.458
 Vibration    24          0.979              0.992              0.418

                           ! Non-Optimized Parameters !
 Normal termination of Gaussian 16 at Sun Oct 27 02:06:59 2024.
