 Gaussian 16, Revision C.01,
 Gaussian 16:  EM64L-G16RevC.01  3-Jul-2019

 ------------------------------------------------------
 # PBE1PBE/aug-cc-pVDZ opt freq EmpiricalDispersion=GD3
 ------------------------------------------------------

 ----
 blah
 ----
 Symbolic Z-matrix:
 Charge = -1 Multiplicity = 1

 SCF Done:  E(RPBE1PBE) =  -909.652389488     A.U. after   16 cycles
 SCF Done:  E(RPBE1PBE) =  -909.664128710     A.U. after   12 cycles
 SCF Done:  E(RPBE1PBE) =  -909.665627868     A.U. after   13 cycles
 SCF Done:  E(RPBE1PBE) =  -909.665696057     A.U. after   12 cycles
 SCF Done:  E(RPBE1PBE) =  -909.666311310     A.U. after   12 cycles
 SCF Done:  E(RPBE1PBE) =  -909.666519599     A.U. after   12 cycles
 SCF Done:  E(RPBE1PBE) =  -909.666073532     A.U. after   15 cycles
 SCF Done:  E(RPBE1PBE) =  -909.667268346     A.U. after   12 cycles
 SCF Done:  E(RPBE1PBE) =  -909.667520966     A.U. after   15 cycles
 SCF Done:  E(RPBE1PBE) =  -909.667957338     A.U. after   12 cycles
 SCF Done:  E(RPBE1PBE) =  -909.668641914     A.U. after   12 cycles
 SCF Done:  E(RPBE1PBE) =  -909.668705747     A.U. after   15 cycles
 SCF Done:  E(RPBE1PBE) =  -909.668865305     A.U. after   11 cycles
 SCF Done:  E(RPBE1PBE) =  -909.668898727     A.U. after   11 cycles
 SCF Done:  E(RPBE1PBE) =  -909.668906888     A.U. after   11 cycles
 SCF Done:  E(RPBE1PBE) =  -909.668906433     A.U. after   10 cycles
 SCF Done:  E(RPBE1PBE) =  -909.668908005     A.U. after   10 cycles
 SCF Done:  E(RPBE1PBE) =  -909.668908058     A.U. after    8 cycles
 SCF Done:  E(RPBE1PBE) =  -909.668908114     A.U. after    8 cycles
 Optimization completed.
    -- Stationary point found.
 Normal termination of Gaussian 16 at Sun Oct 27 01:59:37 2024.

 ----------------------------------------------------------------------
 #N Geom=AllCheck Guess=TCheck SCRF=Check GenChk RPBE1PBE/Aug-CC-pVDZ F
 req
 ----------------------------------------------------------------------

 Structure from the checkpoint file:  "/scr/Gau-4389.chk"
 ----
 blah
 ----
 Charge = -1 Multiplicity = 1

                         Standard orientation:
 ---------------------------------------------------------------------
 Center     Atomic      Atomic             Coordinates (Angstroms)
 Number     Number       Type             X           Y           Z
 ---------------------------------------------------------------------
      1          6           0       -2.036822   -0.209471    0.774639
      2          6           0       -1.351534   -1.380241    0.078897
      3          6           0       -0.516383   -0.656074   -0.972194
      4          8           0       -2.331550   -2.174832   -0.578074
      5          1           0       -0.712834   -1.993027    0.726651
      6          8           0       -1.281616    0.528290   -1.313739
      7          1           0       -0.468555   -1.293276   -1.867351
      8          6           0        0.866548   -0.273891   -0.518573
      9          6           0       -2.354864    0.708173   -0.399246
     10          1           0       -1.334703    0.286795    1.459443
     11          8           0       -3.239606   -0.566073    1.450833
     12          6           0       -2.463454    2.177941   -0.048894
     13          1           0       -3.305912    0.377769   -0.855547
     14          8           0       -1.325074    2.668524    0.629285
     15          1           0       -3.327695    2.323301    0.615556
     16          1           0       -2.644152    2.748119   -0.977878
     17          1           0       -2.996792   -0.901294    2.318253
     18          1           0       -3.095802   -2.193185    0.011006
     19          1           0       -0.554481    2.247941    0.224048
     20          6           0        1.361882    0.971193   -0.708584
     21          7           0        2.631023    1.269868   -0.323470
     22          6           0        3.478083    0.329608    0.316971
     23          7           0        3.026581   -0.928498    0.454694
     24          6           0        1.789441   -1.300925    0.033096
     25          1           0        0.796754    1.761110   -1.206903
     26          1           0        3.010426    2.198471   -0.422078
     27          8           0        4.581240    0.758746    0.686004
     28          8           0        1.395748   -2.483428    0.090634
 ---------------------------------------------------------------------

 SCF Done:  E(RPBE1PBE) =  -909.668908114     A.U. after    1 cycles

 The electronic state is 1-A.
 Alpha  occ. eigenvalues --  -19.16351 -19.13530 -19.13496 -19.12424 -19.02460
 Alpha  occ. eigenvalues --  -19.02282 -14.30528 -14.21025 -10.19605 -10.19413
 Alpha  occ. eigenvalues --  -10.19151 -10.19070 -10.17971 -10.17226 -10.17075
 Alpha  occ. eigenvalues --  -10.16231 -10.10897  -1.00200  -0.98042  -0.96289
 Alpha  occ. eigenvalues --   -0.94751  -0.92231  -0.88891  -0.83749  -0.74809
 Alpha  occ. eigenvalues --   -0.71299  -0.70330  -0.65409  -0.60244  -0.53585
 Alpha  occ. eigenvalues --   -0.52441  -0.50190  -0.49388  -0.47252  -0.45163
 Alpha  occ. eigenvalues --   -0.43369  -0.42048  -0.41587  -0.39134  -0.38424
 Alpha  occ. eigenvalues --   -0.37417  -0.35783  -0.34269  -0.32681  -0.32236
 Alpha  occ. eigenvalues --   -0.31693  -0.30419  -0.29146  -0.29011  -0.27037
 Alpha  occ. eigenvalues --   -0.26567  -0.26291  -0.25011  -0.24133  -0.22181
 Alpha  occ. eigenvalues --   -0.20660  -0.20257  -0.18979  -0.17863  -0.13429
 Alpha  occ. eigenvalues --   -0.11750  -0.10221  -0.10089  -0.09649
 Alpha virt. eigenvalues --    0.06695   0.07927   0.08925   0.09595   0.10582
 Alpha virt. eigenvalues --    0.10924   0.11688   0.11786   0.12470   0.13004
 Alpha virt. eigenvalues --    0.13715   0.14367   0.14901   0.15666   0.16301

 Mulliken charges:
               1
     1  C    0.587799
     2  C    1.384865
     3  C    0.652837
     4  O   -0.745163
     5  H   -0.468268
     6  O   -0.860925
     7  H   -0.349829
     8  C    0.721450
     9  C    0.757689
    10  H   -0.495078
    11  O   -0.665453
    12  C    1.207971
    13  H   -0.548455
    14  O   -0.578311
    15  H   -0.262042
    16  H   -0.217857
    17  H    0.137487
    18  H    0.143331
    19  H    0.173636
    20  C    0.865097
    21  N   -0.536552
    22  C    0.668617
    23  N   -0.628570
    24  C    0.474233
    25  H   -0.683121
    26  H   -0.136133
    27  O   -0.745938
    28  O   -0.853318
 Sum of Mulliken charges =  -1.00000

 Dipole moment (field-independent basis, Debye):
    X=            -11.8062    Y=              4.6653    Z=             -0.9437  Tot=             12.7296
 Quadrupole moment (field-independent basis, Debye-Ang):
   XX=           -163.6070   YY=           -124.6060   ZZ=           -101.9661
   XY=             10.1471   XZ=            -16.1397   YZ=             -7.3475

  Exact polarizability:     187.875      12.785     161.361       8.838      -4.037     113.990
 Approx polarizability:     239.307      31.644     246.948      14.793      -5.877     173.702

                      1                      2                      3
                      A                      A                      A
 Frequencies --     24.3901                43.2071                77.4952
 Red. masses --      6.7166                 9.8730                 5.4244
 Frc consts  --      0.0024                 0.0109                 0.0192
 IR Inten    --      6.2739                 1.3578                 9.1158

                      4                      5                      6
                      A                      A                      A
 Frequencies --     94.3202               123.0152               152.6846
 Red. masses --      7.0323                 5.0239                 7.9058
 Frc consts  --      0.0369                 0.0448                 0.1086
 IR Inten    --      2.4703                 3.9421                11.4965

                      7                      8                      9
                      A                      A                      A
 Frequencies --    183.8518               196.7394               221.0131
 Red. masses --      8.9896                 7.9917                 2.9344
 Frc consts  --      0.1790                 0.1823                 0.0845
 IR Inten    --      0.6665                 2.7356                 4.2098

                     10                     11                     12
                      A                      A                      A
 Frequencies --    245.8750               261.0567               287.8818
 Red. masses --      2.0971                 4.2778                 2.0015
 Frc consts  --      0.0747                 0.1718                 0.0977
 IR Inten    --      9.4137                 2.7044                28.8219

                     13                     14                     15
                      A                      A                      A
 Frequencies --    300.1546               313.9896               333.5716
 Red. masses --      7.8269                 5.6291                 5.2613
 Frc consts  --      0.4155                 0.3270                 0.3449
 IR Inten    --      4.7281                13.9434                 1.6220

                     16                     17                     18
                      A                      A                      A
 Frequencies --    389.6751               414.3086               440.3361
 Red. masses --      2.9173                 3.0134                 5.0247
 Frc consts  --      0.2610                 0.3048                 0.5740
 IR Inten    --     18.8355                 9.6724                 4.3162

                     19                     20                     21
                      A                      A                      A
 Frequencies --    447.2068               462.9137               555.8349
 Red. masses --      1.2471                 1.1276                 6.2683
 Frc consts  --      0.1469                 0.1424                 1.1410
 IR Inten    --    175.4765                29.9838                30.3032

                     22                     23                     24
                      A                      A                      A
 Frequencies --    560.2574               570.3040               586.5642
 Red. masses --      5.6029                 1.3811                 6.3480
 Frc consts  --      1.0362                 0.2647                 1.2868
 IR Inten    --      3.3087                53.4329                10.7791

                     25                     26                     27
                      A                      A                      A
 Frequencies --    645.0078               650.1923               711.8367
 Red. masses --      5.6386                 4.7541                 4.9235
 Frc consts  --      1.3821                 1.1841                 1.4699
 IR Inten    --     12.5141                15.7111                 8.9994

                     28                     29                     30
                      A                      A                      A
 Frequencies --    766.7264               779.1795               788.8963
 Red. masses --      6.0410                 8.3569                11.8627
 Frc consts  --      2.0924                 2.9893                 4.3498
 IR Inten    --      5.5810                 2.7974                14.1842

                     31                     32                     33
                      A                      A                      A
 Frequencies --    804.6991               865.9501               882.8780
 Red. masses --      7.2215                 5.3357                 2.2979
 Frc consts  --      2.7551                 2.3574                 1.0553
 IR Inten    --     11.3142                13.4543                13.9021

                     34                     35                     36
                      A                      A                      A
 Frequencies --    888.1948               939.0499               960.9214
 Red. masses --      3.4553                 1.4505                 3.0734
 Frc consts  --      1.6060                 0.7536                 1.6720
 IR Inten    --      3.7314                22.8295                60.1741

                     37                     38                     39
                      A                      A                      A
 Frequencies --    968.8160               992.7057              1043.3074
 Red. masses --      4.3445                 1.9735                 2.2495
 Frc consts  --      2.4025                 1.1459                 1.4426
 IR Inten    --     12.1716                36.8556                30.3463

                     40                     41                     42
                      A                      A                      A
 Frequencies --   1072.1336              1099.6563              1111.8916
 Red. masses --      3.3537                 2.1079                 3.0029
 Frc consts  --      2.2713                 1.5018                 2.1874
 IR Inten    --     82.6387                32.3727                26.1972

                     43                     44                     45
                      A                      A                      A
 Frequencies --   1135.4256              1145.5363              1163.2225
 Red. masses --      2.5427                 2.1103                 2.7528
 Frc consts  --      1.9314                 1.6316                 2.1946
 IR Inten    --     84.7900                53.9491               111.3625

                     46                     47                     48
                      A                      A                      A
 Frequencies --   1191.7313              1223.4283              1224.8205
 Red. masses --      1.4301                 1.2176                 1.6399
 Frc consts  --      1.1966                 1.0738                 1.4495
 IR Inten    --     83.5329                19.3316                28.4685

                     49                     50                     51
                      A                      A                      A
 Frequencies --   1246.6291              1279.7629              1304.2683
 Red. masses --      1.3696                 1.3111                 1.5298
 Frc consts  --      1.2540                 1.2651                 1.5332
 IR Inten    --     18.6656                 1.9472                15.5273

                     52                     53                     54
                      A                      A                      A
 Frequencies --   1308.4451              1324.1611              1327.6040
 Red. masses --      1.7952                 1.6395                 1.7801
 Frc consts  --      1.8108                 1.6937                 1.8485
 IR Inten    --     66.8204                 9.1316                 6.2604

                     55                     56                     57
                      A                      A                      A
 Frequencies --   1334.1043              1346.6240              1362.9467
 Red. masses --      1.5803                 4.0673                 1.2948
 Frc consts  --      1.6572                 4.3456                 1.4171
 IR Inten    --     56.8160               170.5380                32.5684

                     58                     59                     60
                      A                      A                      A
 Frequencies --   1367.8246              1382.8506              1409.3076
 Red. masses --      2.4928                 1.5120                 1.5856
 Frc consts  --      2.7479                 1.7036                 1.8554
 IR Inten    --     10.0311                53.9654                21.2612

                     61                     62                     63
                      A                      A                      A
 Frequencies --   1424.3264              1454.3242              1477.2439
 Red. masses --      1.4232                 1.7540                 1.0823
 Frc consts  --      1.7012                 2.1857                 1.3916
 IR Inten    --     12.7563                 3.6928                 2.8678

                     64                     65                     66
                      A                      A                      A
 Frequencies --   1490.4341              1627.6591              1719.6955
 Red. masses --      4.5438                 9.2450                 7.4592
 Frc consts  --      5.9469                14.4305                12.9971
 IR Inten    --     62.0310               775.4634                99.1482

                     67                     68                     69
                      A                      A                      A
 Frequencies --   1735.9648              3004.6736              3020.6367
 Red. masses --      9.0970                 1.0714                 1.0799
 Frc consts  --     16.1522                 5.6989                 5.8054
 IR Inten    --    942.9708                28.1801               120.0542

                     70                     71                     72
                      A                      A                      A
 Frequencies --   3070.3225              3087.4208              3095.8569
 Red. masses --      1.0853                 1.0860                 1.0957
 Frc consts  --      6.0282                 6.0993                 6.1875
 IR Inten    --     23.9056                18.1226                36.2268

                     73                     74                     75
                      A                      A                      A
 Frequencies --   3118.4527              3183.8433              3674.3054
 Red. masses --      1.0886                 1.0922                 1.0785
 Frc consts  --      6.2376                 6.5230                 8.5786
 IR Inten    --      8.5264                17.2037                38.7285

                     76                     77                     78
                      A                      A                      A
 Frequencies --   3778.4729              3811.8070              3882.6127
 Red. masses --      1.0659                 1.0654                 1.0665
 Frc consts  --      8.9657                 9.1205                 9.4726
 IR Inten    --    180.8384                44.1821                38.7342

 - Thermochemistry -
 -------------------
 Temperature   298.150 Kelvin.  Pressure   1.00000 Atm.
 Atom     1 has atomic number  6 and mass  12.00000

 Molecular mass:   243.06171 amu.
 Principal axes and moments of inertia in atomic units:
                           1         2         3
     Eigenvalues --  2270.907845432.906266766.15610
           X            0.99998   0.00140  -0.00597
           Y           -0.00147   0.99992  -0.01290
           Z            0.00596   0.01291   0.99990
 This molecule is an asymmetric top.
 Rotational symmetry number  1.
 Warning -- assumption of classical behavior for rotation
           may cause significant error
 Rotational temperatures (Kelvin)      0.03814     0.01594     0.01280
 Rotational constants (GHZ):           0.79472     0.33219     0.26673
 Zero-point vibrational energy     562217.6 (Joules/Mol)
                                  134.37322 (Kcal/Mol)
 Warning -- explicit consideration of  24 degrees of freedom as
           vibrations may cause significant error
 Vibrational temperatures:     35.09    62.17   111.50   135.71   176.99
          (Kelvin)            219.68   264.52   283.06   317.99   353.76
                              375.60   414.20   431.86   451.76   479.94
                              560.66   596.10   633.55   643.43   666.03
                              799.72   806.09   820.54   843.94   928.02
                              935.48  1024.17  1103.15  1121.07  1135.05
                             1157.78  1245.91  1270.26  1277.91  1351.08
                             1382.55  1393.91  1428.28  1501.09  1542.56
                             1582.16  1599.76  1633.62  1648.17  1673.62
                             1714.64  1760.24  1762.24  1793.62  1841.29
                             1876.55  1882.56  1905.17  1910.13  1919.48
                             1937.49  1960.98  1967.99  1989.61  2027.68
                             2049.29  2092.45  2125.42  2144.40  2341.84
                             2474.26  2497.67  4323.06  4346.02  4417.51
                             4442.11  4454.25  4486.76  4580.84  5286.51
                             5436.38  5484.34  5586.21

 Zero-point correction=                           0.214137 (Hartree/Particle)
 Thermal correction to Energy=                    0.229388
 Thermal correction to Enthalpy=                  0.230332
 Thermal correction to Gibbs Free Energy=         0.170910
 Sum of electronic and zero-point Energies=           -909.454771
 Sum of electronic and thermal Energies=              -909.439520
 Sum of electronic and thermal Enthalpies=            -909.438576
 Sum of electronic and thermal Free Energies=         -909.497998

                     E (Thermal)             CV                S
                      KCal/Mol        Cal/Mol-Kelvin    Cal/Mol-Kelvin
 Total                  143.943             57.943            125.065
 Electronic               0.000              0.000              0.000
 Translational            0.889              2.981             42.365
 Rotational               0.889              2.981             32.790
 Vibrational            142.166             51.981             49.909
 Vibration     1          0.593              1.985              6.240
 Vibration     2          0.595              1.980              5.106
 Vibration     3          0.599              1.964              3.953
 Vibration     4          0.603              1.953              3.568
 Vibration     5          0.610              1.930              3.052
 Vibration     6          0.619              1.900              2.639
 Vibration     7          0.631              1.862              2.289
 Vibration     8          0.636              1.844              2.163
 Vibration     9          0.648              1.809              1.951
 Vibration    10          0.660              1.770              1.760
 Vibration    11          0.669              1.744              1.655
 Vibration    12          0.685              1.696              1.486
 Vibration    13          0.693              1.673              1.416
 Vibration    14          0.702              1.647              1.341
 Vibration    15          0.715              1.608              1.243
 Vibration    16          0.758              1.492              1.001
 Vibration    17          0.778              1.439              0.912
 Vibration    18          0.800              1.382              0.826
 Vibration    19          0.806              1.367              0.804
 Vibration    20          0.821              1.332              0.758
 Vibration    21          0.911              1.127              0.532
 Vibration    22          0.916              1.117              0.523
 Vibration    23          0.926              1.095              0.504
 Vibration    24          0.944              1.060              0.473

                           ! Non-Optimized Parameters !
 Normal termination of Gaussian 16 at Sun Oct 27 02:14:34 2024.
