 Gaussian 16, Revision C.01,
 Gaussian 16:  EM64L-G16RevC.01  3-Jul-2019

 ------------------------------------------------------
 # PBE1PBE/aug-cc-pVDZ opt freq EmpiricalDispersion=GD3
 ------------------------------------------------------

 ----
 blah
 ----
 Symbolic Z-matrix:
 Charge =  0 Multiplicity = 1

 SCF Done:  E(RPBE1PBE) =  -910.202081847     A.U. after   14 cycles
 SCF Done:  E(RPBE1PBE) =  -910.220466361     A.U. after   13 cycles
 SCF Done:  E(RPBE1PBE) =  -910.221636789     A.U. after   12 cycles
 SCF Done:  E(RPBE1PBE) =  -910.222071221     A.U. after   12 cycles
 SCF Done:  E(RPBE1PBE) =  -910.222366399     A.U. after   14 cycles
 SCF Done:  E(RPBE1PBE) =  -910.222546477     A.U. after   12 cycles
 SCF Done:  E(RPBE1PBE) =  -910.222672438     A.U. after   12 cycles
 SCF Done:  E(RPBE1PBE) =  -910.222721099     A.U. after   12 cycles
 SCF Done:  E(RPBE1PBE) =  -910.222894595     A.U. after   11 cycles
 SCF Done:  E(RPBE1PBE) =  -910.222911734     A.U. after   10 cycles
 SCF Done:  E(RPBE1PBE) =  -910.222941562     A.U. after   12 cycles
 SCF Done:  E(RPBE1PBE) =  -910.222962845     A.U. after   11 cycles
 SCF Done:  E(RPBE1PBE) =  -910.222986361     A.U. after   12 cycles
 SCF Done:  E(RPBE1PBE) =  -910.222991238     A.U. after   10 cycles
 SCF Done:  E(RPBE1PBE) =  -910.222992690     A.U. after   10 cycles
 SCF Done:  E(RPBE1PBE) =  -910.222992994     A.U. after    9 cycles
 SCF Done:  E(RPBE1PBE) =  -910.222993073     A.U. after    8 cycles
 Optimization completed.
    -- Stationary point found.
 Normal termination of Gaussian 16 at Sat Oct 26 07:53:29 2024.

 ----------------------------------------------------------------------
 #N Geom=AllCheck Guess=TCheck SCRF=Check GenChk RPBE1PBE/Aug-CC-pVDZ F
 req
 ----------------------------------------------------------------------

 Structure from the checkpoint file:  "/scr/Gau-36719.chk"
 ----
 blah
 ----
 Charge =  0 Multiplicity = 1

                         Standard orientation:
 ---------------------------------------------------------------------
 Center     Atomic      Atomic             Coordinates (Angstroms)
 Number     Number       Type             X           Y           Z
 ---------------------------------------------------------------------
      1          6           0       -2.099808   -0.190031    0.854614
      2          6           0       -1.219755   -1.375131    0.438238
      3          6           0       -0.463734   -0.784059   -0.758302
      4          8           0       -2.027417   -2.441732   -0.000863
      5          1           0       -0.527628   -1.704288    1.230025
      6          8           0       -1.291144    0.271006   -1.273921
      7          1           0       -0.342894   -1.567162   -1.518292
      8          6           0        0.890932   -0.254159   -0.379197
      9          6           0       -2.481251    0.378527   -0.504269
     10          1           0       -1.517047    0.553155    1.419591
     11          8           0       -3.264366   -0.580313    1.558552
     12          6           0       -2.950664    1.820061   -0.508667
     13          1           0       -3.280880   -0.255672   -0.926021
     14          8           0       -1.916716    2.731760   -0.177048
     15          1           0       -3.741490    1.932688    0.244755
     16          1           0       -3.383498    2.065766   -1.491354
     17          1           0       -3.067157   -0.612877    2.498729
     18          1           0       -2.813930   -2.445440    0.561103
     19          1           0       -1.321999    2.743067   -0.933875
     20          6           0        1.114964    1.025949   -0.009004
     21          7           0        2.357878    1.477593    0.348764
     22          6           0        3.488495    0.681606    0.368508
     23          7           0        3.236381   -0.621277   -0.002912
     24          6           0        2.012661   -1.188023   -0.374328
     25          1           0        0.309901    1.757281    0.029993
     26          1           0        2.506673    2.440368    0.613119
     27          1           0        4.036192   -1.242842    0.004269
     28          8           0        4.585876    1.098002    0.685112
     29          8           0        1.942880   -2.372059   -0.656653
 ---------------------------------------------------------------------

 SCF Done:  E(RPBE1PBE) =  -910.222993073     A.U. after    1 cycles

 The electronic state is 1-A.
 Alpha  occ. eigenvalues --  -19.26606 -19.25054 -19.24771 -19.23391 -19.21540
 Alpha  occ. eigenvalues --  -19.21256 -14.47856 -14.46276 -10.39447 -10.36201
 Alpha  occ. eigenvalues --  -10.31978 -10.30628 -10.30443 -10.29836 -10.29630
 Alpha  occ. eigenvalues --  -10.29402 -10.26620  -1.12399  -1.11362  -1.09204
 Alpha  occ. eigenvalues --   -1.08997  -1.07449  -1.06180  -1.02262  -0.96963
 Alpha  occ. eigenvalues --   -0.85911  -0.81684  -0.79076  -0.73385  -0.70687
 Alpha  occ. eigenvalues --   -0.69820  -0.65214  -0.62927  -0.60915  -0.59171
 Alpha  occ. eigenvalues --   -0.57433  -0.55210  -0.54722  -0.54503  -0.51953
 Alpha  occ. eigenvalues --   -0.51082  -0.49868  -0.49615  -0.48884  -0.47183
 Alpha  occ. eigenvalues --   -0.46565  -0.45043  -0.43605  -0.43451  -0.43317
 Alpha  occ. eigenvalues --   -0.41512  -0.40324  -0.39180  -0.37928  -0.37581
 Alpha  occ. eigenvalues --   -0.35813  -0.32789  -0.32187  -0.31304  -0.31126
 Alpha  occ. eigenvalues --   -0.30282  -0.29735  -0.28677  -0.26389
 Alpha virt. eigenvalues --   -0.05345  -0.02252  -0.01522  -0.00132   0.00005
 Alpha virt. eigenvalues --    0.00866   0.01501   0.02005   0.02628   0.03314
 Alpha virt. eigenvalues --    0.03594   0.04175   0.05063   0.05339   0.05590

 Mulliken charges:
               1
     1  C    0.535856
     2  C    1.024761
     3  C    0.909124
     4  O   -0.693992
     5  H   -0.471101
     6  O   -0.866887
     7  H   -0.460860
     8  C    0.670595
     9  C    1.020617
    10  H   -0.457959
    11  O   -0.635228
    12  C    1.021259
    13  H   -0.556998
    14  O   -0.519873
    15  H   -0.278122
    16  H   -0.202285
    17  H    0.152440
    18  H    0.152863
    19  H    0.186929
    20  C    1.280096
    21  N   -0.504298
    22  C    0.757299
    23  N   -0.363259
    24  C    0.573306
    25  H   -0.768464
    26  H   -0.085546
    27  H   -0.067424
    28  O   -0.596970
    29  O   -0.755878
 Sum of Mulliken charges =  -0.00000

 Dipole moment (field-independent basis, Debye):
    X=             -2.8480    Y=              2.9136    Z=              2.0517  Tot=              4.5618
 Quadrupole moment (field-independent basis, Debye-Ang):
   XX=           -110.5886   YY=           -107.6978   ZZ=            -93.1375
   XY=             -0.3189   XZ=             -5.5731   YZ=             -7.5473

  Exact polarizability:     174.947       6.908     150.545       6.289       7.280     105.312
 Approx polarizability:     217.739      16.227     233.466      11.489      21.053     161.733

                      1                      2                      3
                      A                      A                      A
 Frequencies --     26.3165                46.4137                60.5547
 Red. masses --      6.5447                 5.7621                 7.7822
 Frc consts  --      0.0027                 0.0073                 0.0168
 IR Inten    --      3.6880                 0.1815                 1.3444

                      4                      5                      6
                      A                      A                      A
 Frequencies --     96.3628               111.1873               143.1519
 Red. masses --      4.6831                 6.6950                 6.9294
 Frc consts  --      0.0256                 0.0488                 0.0837
 IR Inten    --     12.5200                 6.8526                 2.9163

                      7                      8                      9
                      A                      A                      A
 Frequencies --    157.0787               171.5103               231.4787
 Red. masses --      9.3685                 6.8535                 2.8922
 Frc consts  --      0.1362                 0.1188                 0.0913
 IR Inten    --      1.8730                 3.4059                 5.9569

                     10                     11                     12
                      A                      A                      A
 Frequencies --    244.7804               251.9970               274.2862
 Red. masses --      2.4084                 3.0516                 2.6236
 Frc consts  --      0.0850                 0.1142                 0.1163
 IR Inten    --      4.5689                 0.4295                25.0638

                     13                     14                     15
                      A                      A                      A
 Frequencies --    290.8754               315.7841               352.3984
 Red. masses --      2.6191                 5.7771                 3.9325
 Frc consts  --      0.1306                 0.3394                 0.2877
 IR Inten    --     26.2741                 7.3308                 0.5675

                     16                     17                     18
                      A                      A                      A
 Frequencies --    369.0828               398.6570               421.6872
 Red. masses --      1.6185                 9.4190                 2.2946
 Frc consts  --      0.1299                 0.8820                 0.2404
 IR Inten    --    138.6533                38.3267                32.2927

                     19                     20                     21
                      A                      A                      A
 Frequencies --    451.1783               464.6477               545.8451
 Red. masses --      3.8699                 1.1524                 8.3017
 Frc consts  --      0.4641                 0.1466                 1.4573
 IR Inten    --     18.2318               138.4407                12.9682

                     22                     23                     24
                      A                      A                      A
 Frequencies --    564.7717               580.8836               596.2595
 Red. masses --      6.4266                 4.8105                 1.1810
 Frc consts  --      1.2077                 0.9564                 0.2474
 IR Inten    --     41.4883                 4.8292                51.2776

                     25                     26                     27
                      A                      A                      A
 Frequencies --    615.4695               645.5665               702.2535
 Red. masses --      5.7188                 5.0154                 1.1846
 Frc consts  --      1.2763                 1.2315                 0.3442
 IR Inten    --     15.1830                14.8990                66.2446

                     28                     29                     30
                      A                      A                      A
 Frequencies --    721.0818               764.0679               770.1268
 Red. masses --      4.9222                 5.6862                 8.7811
 Frc consts  --      1.5079                 1.9558                 3.0685
 IR Inten    --     18.7770                 7.4502                31.7813

                     31                     32                     33
                      A                      A                      A
 Frequencies --    792.8281               802.9285               859.2459
 Red. masses --      8.0648                 8.4121                 3.0624
 Frc consts  --      2.9868                 3.1953                 1.3321
 IR Inten    --      7.1443                21.5527                 5.4256

                     34                     35                     36
                      A                      A                      A
 Frequencies --    873.2707               909.0628               962.1058
 Red. masses --      3.1583                 2.5094                 1.6466
 Frc consts  --      1.4191                 1.2218                 0.8980
 IR Inten    --     13.1546                14.3359                30.9710

                     37                     38                     39
                      A                      A                      A
 Frequencies --    969.9065               992.8034              1000.0877
 Red. masses --      2.1342                 2.6188                 2.2223
 Frc consts  --      1.1829                 1.5208                 1.3096
 IR Inten    --     19.9628                19.3778                18.0508

                     40                     41                     42
                      A                      A                      A
 Frequencies --   1054.7048              1072.9249              1095.3229
 Red. masses --      2.6918                 4.1170                 1.7009
 Frc consts  --      1.7642                 2.7924                 1.2023
 IR Inten    --     34.3354                61.2686                29.7943

                     43                     44                     45
                      A                      A                      A
 Frequencies --   1123.7928              1148.9222              1155.4394
 Red. masses --      3.1558                 3.3041                 2.3888
 Frc consts  --      2.3482                 2.5697                 1.8790
 IR Inten    --      9.1234                97.2640                47.0312

                     46                     47                     48
                      A                      A                      A
 Frequencies --   1168.6111              1197.8987              1206.2518
 Red. masses --      3.0038                 1.4527                 1.1850
 Frc consts  --      2.4169                 1.2282                 1.0158
 IR Inten    --    118.8394                64.3523                12.1243

                     49                     50                     51
                      A                      A                      A
 Frequencies --   1223.7373              1251.9185              1258.9409
 Red. masses --      1.6639                 1.6202                 1.8798
 Frc consts  --      1.4681                 1.4961                 1.7554
 IR Inten    --     91.6819                14.7680                13.7731

                     52                     53                     54
                      A                      A                      A
 Frequencies --   1289.6342              1312.4281              1323.2377
 Red. masses --      1.2435                 1.4824                 1.4769
 Frc consts  --      1.2185                 1.5045                 1.5236
 IR Inten    --      3.9531                23.3651                 2.8502

                     55                     56                     57
                      A                      A                      A
 Frequencies --   1343.8881              1360.3991              1372.6688
 Red. masses --      1.5329                 1.4058                 1.5326
 Frc consts  --      1.6312                 1.5329                 1.7015
 IR Inten    --      4.6755                53.6377                 9.3895

                     58                     59                     60
                      A                      A                      A
 Frequencies --   1383.5760              1389.8927              1403.1804
 Red. masses --      1.3397                 1.8353                 1.7005
 Frc consts  --      1.5110                 2.0889                 1.9727
 IR Inten    --      1.7361                20.8433                 4.7036

                     61                     62                     63
                      A                      A                      A
 Frequencies --   1409.4855              1413.6973              1445.5228
 Red. masses --      1.5255                 1.5419                 3.0298
 Frc consts  --      1.7856                 1.8156                 3.7301
 IR Inten    --     13.9360                21.1505                72.7023

                     64                     65                     66
                      A                      A                      A
 Frequencies --   1452.1309              1476.5149              1525.6603
 Red. masses --      1.8244                 1.0803                 3.9879
 Frc consts  --      2.2667                 1.3877                 5.4691
 IR Inten    --      2.8315                 3.0434               165.7493

                     67                     68                     69
                      A                      A                      A
 Frequencies --   1723.9502              1782.7455              1829.3506
 Red. masses --      6.8669                 9.4432                 8.2243
 Frc consts  --     12.0243                17.6827                16.2160
 IR Inten    --     40.8445               595.3712               860.6533

                     70                     71                     72
                      A                      A                      A
 Frequencies --   3029.0701              3046.9619              3052.7978
 Red. masses --      1.0802                 1.0859                 1.0689
 Frc consts  --      5.8394                 5.9399                 5.8690
 IR Inten    --     13.7763                33.5061                57.8200

                     73                     74                     75
                      A                      A                      A
 Frequencies --   3074.9164              3103.6491              3126.1873
 Red. masses --      1.0865                 1.0862                 1.1011
 Frc consts  --      6.0526                 6.1648                 6.3401
 IR Inten    --     39.6683                 4.1156                13.0042

                     76                     77                     78
                      A                      A                      A
 Frequencies --   3234.1842              3630.5277              3670.5921
 Red. masses --      1.0945                 1.0778                 1.0791
 Frc consts  --      6.7451                 8.3703                 8.5659
 IR Inten    --      8.2906                77.2265               104.5373

                     79                     80                     81
                      A                      A                      A
 Frequencies --   3793.2538              3860.0308              3884.7419
 Red. masses --      1.0654                 1.0661                 1.0669
 Frc consts  --      9.0324                 9.3587                 9.4864
 IR Inten    --     64.0215                29.9722                57.4935

 - Thermochemistry -
 -------------------
 Temperature   298.150 Kelvin.  Pressure   1.00000 Atm.
 Atom     1 has atomic number  6 and mass  12.00000

 Molecular mass:   244.06954 amu.
 Principal axes and moments of inertia in atomic units:
                           1         2         3
     Eigenvalues --  2286.654075791.261507167.90763
           X            0.99998  -0.00629  -0.00114
           Y            0.00627   0.99989  -0.01336
           Z            0.00123   0.01335   0.99991
 This molecule is an asymmetric top.
 Rotational symmetry number  1.
 Warning -- assumption of classical behavior for rotation
           may cause significant error
 Rotational temperatures (Kelvin)      0.03788     0.01496     0.01208
 Rotational constants (GHZ):           0.78925     0.31163     0.25178
 Zero-point vibrational energy     599636.2 (Joules/Mol)
                                  143.31648 (Kcal/Mol)
 Warning -- explicit consideration of  25 degrees of freedom as
           vibrations may cause significant error
 Vibrational temperatures:     37.86    66.78    87.12   138.64   159.97
          (Kelvin)            205.96   226.00   246.77   333.05   352.18
                              362.57   394.64   418.50   454.34   507.02
                              531.03   573.58   606.71   649.14   668.52
                              785.35   812.58   835.76   857.88   885.52
                              928.83  1010.39  1037.48  1099.32  1108.04
                             1140.70  1155.24  1236.26  1256.44  1307.94
                             1384.26  1395.48  1428.42  1438.90  1517.48
                             1543.70  1575.93  1616.89  1653.04  1662.42
                             1681.37  1723.51  1735.53  1760.69  1801.23
                             1811.34  1855.50  1888.29  1903.84  1933.56
                             1957.31  1974.96  1990.66  1999.75  2018.86
                             2027.94  2034.00  2079.78  2089.29  2124.38
                             2195.08  2480.38  2564.97  2632.03  4358.16
                             4383.90  4392.30  4424.12  4465.46  4497.89
                             4653.27  5223.52  5281.16  5457.65  5553.72
                             5589.28

 Zero-point correction=                           0.228389 (Hartree/Particle)
 Thermal correction to Energy=                    0.243942
 Thermal correction to Enthalpy=                  0.244886
 Thermal correction to Gibbs Free Energy=         0.184676
 Sum of electronic and zero-point Energies=           -909.994604
 Sum of electronic and thermal Energies=              -909.979051
 Sum of electronic and thermal Enthalpies=            -909.978107
 Sum of electronic and thermal Free Energies=         -910.038317

                     E (Thermal)             CV                S
                      KCal/Mol        Cal/Mol-Kelvin    Cal/Mol-Kelvin
 Total                  153.076             58.910            126.724
 Electronic               0.000              0.000              0.000
 Translational            0.889              2.981             42.378
 Rotational               0.889              2.981             32.917
 Vibrational            151.299             52.948             51.429
 Vibration     1          0.593              1.985              6.089
 Vibration     2          0.595              1.979              4.965
 Vibration     3          0.597              1.973              4.439
 Vibration     4          0.603              1.952              3.527
 Vibration     5          0.607              1.940              3.248
 Vibration     6          0.616              1.910              2.761
 Vibration     7          0.621              1.895              2.585
 Vibration     8          0.626              1.878              2.419
 Vibration     9          0.653              1.793              1.867
 Vibration    10          0.660              1.771              1.768
 Vibration    11          0.664              1.759              1.717
 Vibration    12          0.677              1.721              1.569
 Vibration    13          0.687              1.691              1.469
 Vibration    14          0.703              1.643              1.332
 Vibration    15          0.729              1.570              1.155
 Vibration    16          0.741              1.536              1.084
 Vibration    17          0.765              1.473              0.968
 Vibration    18          0.784              1.423              0.886
 Vibration    19          0.810              1.358              0.792
 Vibration    20          0.822              1.328              0.753
 Vibration    21          0.901              1.149              0.553
 Vibration    22          0.921              1.107              0.514
 Vibration    23          0.938              1.073              0.484
 Vibration    24          0.954              1.040              0.456
 Vibration    25          0.975              0.999              0.424

                           ! Non-Optimized Parameters !
 Normal termination of Gaussian 16 at Sat Oct 26 08:09:22 2024.
