 Gaussian 16, Revision C.01,
 Gaussian 16:  EM64L-G16RevC.01  3-Jul-2019

 ------------------------------------------------------
 # PBE1PBE/aug-cc-pVDZ opt freq EmpiricalDispersion=GD3
 ------------------------------------------------------

 ----
 blah
 ----
 Symbolic Z-matrix:
 Charge =  0 Multiplicity = 1

 SCF Done:  E(RPBE1PBE) =  -910.200939605     A.U. after   14 cycles
 SCF Done:  E(RPBE1PBE) =  -910.210073095     A.U. after   12 cycles
 SCF Done:  E(RPBE1PBE) =  -910.211795085     A.U. after   12 cycles
 SCF Done:  E(RPBE1PBE) =  -910.212538825     A.U. after   14 cycles
 SCF Done:  E(RPBE1PBE) =  -910.212963249     A.U. after   14 cycles
 SCF Done:  E(RPBE1PBE) =  -910.213391990     A.U. after   11 cycles
 SCF Done:  E(RPBE1PBE) =  -910.213587031     A.U. after   12 cycles
 SCF Done:  E(RPBE1PBE) =  -910.213728446     A.U. after   12 cycles
 SCF Done:  E(RPBE1PBE) =  -910.213776557     A.U. after   10 cycles
 SCF Done:  E(RPBE1PBE) =  -910.213784013     A.U. after   11 cycles
 SCF Done:  E(RPBE1PBE) =  -910.214500312     A.U. after   10 cycles
 SCF Done:  E(RPBE1PBE) =  -910.214859565     A.U. after   12 cycles
 SCF Done:  E(RPBE1PBE) =  -910.215046580     A.U. after   12 cycles
 SCF Done:  E(RPBE1PBE) =  -910.215097683     A.U. after   11 cycles
 SCF Done:  E(RPBE1PBE) =  -910.215079316     A.U. after   11 cycles
 SCF Done:  E(RPBE1PBE) =  -910.215103049     A.U. after   11 cycles
 SCF Done:  E(RPBE1PBE) =  -910.215119350     A.U. after   11 cycles
 SCF Done:  E(RPBE1PBE) =  -910.215126514     A.U. after   10 cycles
 SCF Done:  E(RPBE1PBE) =  -910.215127408     A.U. after    8 cycles
 Optimization completed.
    -- Stationary point found.
 Normal termination of Gaussian 16 at Thu Oct 17 12:54:43 2024.

 ----------------------------------------------------------------------
 #N Geom=AllCheck Guess=TCheck SCRF=Check GenChk RPBE1PBE/Aug-CC-pVDZ F
 req
 ----------------------------------------------------------------------

 Structure from the checkpoint file:  "/scr/Gau-74435.chk"
 ----
 blah
 ----
 Charge =  0 Multiplicity = 1

                         Standard orientation:
 ---------------------------------------------------------------------
 Center     Atomic      Atomic             Coordinates (Angstroms)
 Number     Number       Type             X           Y           Z
 ---------------------------------------------------------------------
      1          6           0       -2.669538   -0.494103    0.460313
      2          6           0       -1.226059   -0.709833    0.957859
      3          6           0       -0.417619   -0.475247   -0.321533
      4          8           0       -0.992377   -1.942002    1.576549
      5          1           0       -0.978297    0.063229    1.697177
      6          8           0       -1.086313    0.594496   -0.958470
      7          1           0       -0.414788   -1.381852   -0.945105
      8          7           0        0.967249   -0.123572   -0.128780
      9          6           0       -2.493895    0.362889   -0.803606
     10          1           0       -3.278125    0.023580    1.214358
     11          8           0       -3.268269   -1.720565    0.079045
     12          6           0       -3.177430    1.712198   -0.759038
     13          1           0       -2.868772   -0.219202   -1.661656
     14          8           0       -2.732426    2.492414    0.333326
     15          1           0       -4.257377    1.563004   -0.629586
     16          1           0       -3.017618    2.235222   -1.716014
     17          1           0       -3.531575   -2.184977    0.880312
     18          1           0       -1.195593   -2.635393    0.936736
     19          1           0       -1.808925    2.705769    0.165430
     20          6           0        1.301836    1.020779    0.553120
     21          6           0        2.574055    1.420515    0.751229
     22          6           0        3.665950    0.619524    0.226912
     23          7           0        3.232434   -0.522870   -0.457931
     24          6           0        1.945625   -0.952657   -0.682129
     25          1           0        0.453872    1.597820    0.916300
     26          1           0        2.810224    2.331202    1.292786
     27          1           0        3.956142   -1.116163   -0.845612
     28          8           0        4.854878    0.858169    0.334109
     29          8           0        1.688945   -1.967703   -1.301673
 ---------------------------------------------------------------------

 SCF Done:  E(RPBE1PBE) =  -910.215127408     A.U. after    1 cycles

 The electronic state is 1-A.
 Alpha  occ. eigenvalues --  -19.26956 -19.26180 -19.25832 -19.24994 -19.21842
 Alpha  occ. eigenvalues --  -19.20906 -14.48427 -14.46100 -10.39622 -10.35975
 Alpha  occ. eigenvalues --  -10.34643 -10.32301 -10.31270 -10.31162 -10.30975
 Alpha  occ. eigenvalues --  -10.30135 -10.26152  -1.13892  -1.12076  -1.10086
 Alpha  occ. eigenvalues --   -1.08790  -1.08134  -1.07885  -1.02687  -0.97349
 Alpha  occ. eigenvalues --   -0.84629  -0.82576  -0.80612  -0.73334  -0.72837
 Alpha  occ. eigenvalues --   -0.68631  -0.66574  -0.63975  -0.60880  -0.59829
 Alpha  occ. eigenvalues --   -0.58176  -0.55974  -0.54944  -0.54127  -0.52745
 Alpha  occ. eigenvalues --   -0.51575  -0.50511  -0.48724  -0.48018  -0.47857
 Alpha  occ. eigenvalues --   -0.47138  -0.45949  -0.44649  -0.44338  -0.43268
 Alpha  occ. eigenvalues --   -0.42897  -0.42538  -0.39207  -0.38605  -0.37949
 Alpha  occ. eigenvalues --   -0.35803  -0.35322  -0.33209  -0.32126  -0.31159
 Alpha  occ. eigenvalues --   -0.31060  -0.30172  -0.28873  -0.26912
 Alpha virt. eigenvalues --   -0.05377  -0.01872  -0.01605  -0.00301   0.00023
 Alpha virt. eigenvalues --    0.00537   0.01668   0.02220   0.02577   0.02809
 Alpha virt. eigenvalues --    0.03425   0.03918   0.05050   0.05662   0.05888

 Mulliken charges:
               1
     1  C    0.989888
     2  C    0.847661
     3  C    0.767497
     4  O   -0.558886
     5  H   -0.516409
     6  O   -0.848825
     7  H   -0.670122
     8  N   -0.067695
     9  C    0.907069
    10  H   -0.381618
    11  O   -0.625376
    12  C    1.129744
    13  H   -0.412868
    14  O   -0.498035
    15  H   -0.272801
    16  H   -0.224839
    17  H    0.107622
    18  H    0.074868
    19  H    0.161485
    20  C    0.657142
    21  C    1.259138
    22  C    0.329997
    23  N   -0.187146
    24  C    0.741667
    25  H   -0.741906
    26  H   -0.580022
    27  H   -0.113685
    28  O   -0.647027
    29  O   -0.626518
 Sum of Mulliken charges =  -0.00000

 Dipole moment (field-independent basis, Debye):
    X=             -4.8121    Y=              0.5022    Z=              0.5227  Tot=              4.8664
 Quadrupole moment (field-independent basis, Debye-Ang):
   XX=           -113.9886   YY=           -100.0681   ZZ=           -101.6532
   XY=              0.9878   XZ=             -1.7284   YZ=             -3.4716

  Exact polarizability:     187.959       8.862     138.349       5.889      11.207     110.862
 Approx polarizability:     243.103      19.173     200.421       9.745      24.823     167.852

                      1                      2                      3
                      A                      A                      A
 Frequencies --     28.6541                37.3187                50.9776
 Red. masses --      5.6610                 7.2431                 6.3192
 Frc consts  --      0.0027                 0.0059                 0.0097
 IR Inten    --      2.1653                 0.7458                 0.4294

                      4                      5                      6
                      A                      A                      A
 Frequencies --     55.5215               112.6265               148.5655
 Red. masses --      7.9042                 3.9268                 6.0075
 Frc consts  --      0.0144                 0.0293                 0.0781
 IR Inten    --      0.5114                11.7622                 1.6213

                      7                      8                      9
                      A                      A                      A
 Frequencies --    161.0049               169.5904               203.1928
 Red. masses --      8.5961                 5.9873                 1.2357
 Frc consts  --      0.1313                 0.1015                 0.0301
 IR Inten    --      8.4841                 0.4022               199.2559

                     10                     11                     12
                      A                      A                      A
 Frequencies --    230.0068               248.1844               277.2590
 Red. masses --      4.3120                 4.2581                 5.1662
 Frc consts  --      0.1344                 0.1545                 0.2340
 IR Inten    --     15.9634                27.3192                 6.3645

                     13                     14                     15
                      A                      A                      A
 Frequencies --    294.8790               322.8242               364.3176
 Red. masses --      2.3380                 5.0587                 1.9771
 Frc consts  --      0.1198                 0.3106                 0.1546
 IR Inten    --     26.0400                 6.2163                79.1547

                     16                     17                     18
                      A                      A                      A
 Frequencies --    386.8177               409.3266               421.8741
 Red. masses --      3.0097                 9.2991                 2.8749
 Frc consts  --      0.2653                 0.9180                 0.3015
 IR Inten    --     90.8368                10.0953                 0.7781

                     19                     20                     21
                      A                      A                      A
 Frequencies --    465.5914               524.1094               537.8947
 Red. masses --      3.5297                 1.5752                 2.3620
 Frc consts  --      0.4508                 0.2549                 0.4026
 IR Inten    --     12.9942                19.8204                18.3555

                     22                     23                     24
                      A                      A                      A
 Frequencies --    545.8822               564.7322               621.1712
 Red. masses --      5.2559                 6.3671                 6.8152
 Frc consts  --      0.9228                 1.1964                 1.5494
 IR Inten    --      4.0165                15.8001                 7.2773

                     25                     26                     27
                      A                      A                      A
 Frequencies --    645.5084               696.4585               708.2905
 Red. masses --      5.9692                 1.3638                 3.2834
 Frc consts  --      1.4654                 0.3898                 0.9705
 IR Inten    --      3.7221                41.6232                19.2400

                     28                     29                     30
                      A                      A                      A
 Frequencies --    726.2236               737.8199               776.2516
 Red. masses --      2.3081                 4.5962                 7.0341
 Frc consts  --      0.7172                 1.4742                 2.4973
 IR Inten    --      5.2773                 7.3383                26.4441

                     31                     32                     33
                      A                      A                      A
 Frequencies --    787.0153               825.8887               876.7866
 Red. masses --      8.2756                 2.4530                 2.6224
 Frc consts  --      3.0200                 0.9858                 1.1878
 IR Inten    --      9.7869                54.2829                 9.6589

                     34                     35                     36
                      A                      A                      A
 Frequencies --    909.2082               924.3870               941.1751
 Red. masses --      3.6149                 2.1911                 2.8172
 Frc consts  --      1.7607                 1.1031                 1.4703
 IR Inten    --     19.7751                15.9756                37.1254

                     37                     38                     39
                      A                      A                      A
 Frequencies --    972.7410               987.8893              1044.1151
 Red. masses --      1.3327                 2.5800                 3.0756
 Frc consts  --      0.7430                 1.4835                 1.9755
 IR Inten    --      0.5155                 2.7819                52.1452

                     40                     41                     42
                      A                      A                      A
 Frequencies --   1066.7038              1087.8878              1092.3623
 Red. masses --      2.6043                 1.8767                 3.6440
 Frc consts  --      1.7460                 1.3086                 2.5619
 IR Inten    --     15.5659                31.4994               117.0423

                     43                     44                     45
                      A                      A                      A
 Frequencies --   1122.4887              1127.7053              1167.1795
 Red. masses --      1.9757                 3.2333                 2.9735
 Frc consts  --      1.4667                 2.4226                 2.3867
 IR Inten    --     23.3669               146.3463               121.2555

                     46                     47                     48
                      A                      A                      A
 Frequencies --   1168.9292              1215.8276              1233.2225
 Red. masses --      2.7399                 1.1807                 1.5522
 Frc consts  --      2.2058                 1.0283                 1.3909
 IR Inten    --     51.2978                13.9755                27.9239

                     49                     50                     51
                      A                      A                      A
 Frequencies --   1236.6596              1248.4602              1256.9819
 Red. masses --      1.2637                 2.5784                 1.6327
 Frc consts  --      1.1386                 2.3678                 1.5199
 IR Inten    --     15.3879                10.9745                47.6893

                     52                     53                     54
                      A                      A                      A
 Frequencies --   1281.2828              1307.0567              1322.9418
 Red. masses --      1.6177                 1.6341                 1.4092
 Frc consts  --      1.5648                 1.6448                 1.4531
 IR Inten    --      6.3936               156.9744                 4.7868

                     55                     56                     57
                      A                      A                      A
 Frequencies --   1325.6485              1358.9779              1372.5981
 Red. masses --      1.4755                 1.6029                 1.2710
 Frc consts  --      1.5277                 1.7442                 1.4109
 IR Inten    --     59.2103                 4.0559                 0.8963

                     58                     59                     60
                      A                      A                      A
 Frequencies --   1381.2853              1408.3378              1408.7359
 Red. masses --      1.4198                 2.3741                 1.3865
 Frc consts  --      1.5960                 2.7743                 1.6212
 IR Inten    --      5.8338                76.6158                28.8943

                     61                     62                     63
                      A                      A                      A
 Frequencies --   1418.9159              1421.3039              1433.0067
 Red. masses --      2.1234                 1.6630                 1.6824
 Frc consts  --      2.5188                 1.9794                 2.0355
 IR Inten    --     55.8541                36.4249                18.6142

                     64                     65                     66
                      A                      A                      A
 Frequencies --   1443.7275              1473.8460              1500.1508
 Red. masses --      1.6802                 1.0852                 3.7716
 Frc consts  --      2.0633                 1.3888                 5.0009
 IR Inten    --     44.4841                 2.5870               131.4965

                     67                     68                     69
                      A                      A                      A
 Frequencies --   1702.9416              1800.4289              1809.5476
 Red. masses --      6.8961                 8.2191                11.3622
 Frc consts  --     11.7830                15.6973                21.9206
 IR Inten    --     95.3017               984.9117               394.1331

                     70                     71                     72
                      A                      A                      A
 Frequencies --   3042.9008              3057.0525              3080.4095
 Red. masses --      1.0700                 1.0812                 1.0856
 Frc consts  --      5.8370                 5.9531                 6.0694
 IR Inten    --     14.6450                52.1828                 2.2893

                     73                     74                     75
                      A                      A                      A
 Frequencies --   3085.6663              3107.5331              3127.5785
 Red. masses --      1.0872                 1.0868                 1.1004
 Frc consts  --      6.0987                 6.1837                 6.3421
 IR Inten    --     17.4568                21.6969                17.1056

                     76                     77                     78
                      A                      A                      A
 Frequencies --   3238.1439              3274.1690              3630.2757
 Red. masses --      1.0908                 1.0976                 1.0777
 Frc consts  --      6.7387                 6.9327                 8.3682
 IR Inten    --      2.2221                 1.0992                78.6625

                     79                     80                     81
                      A                      A                      A
 Frequencies --   3826.3655              3862.0599              3863.8386
 Red. masses --      1.0656                 1.0664                 1.0659
 Frc consts  --      9.1920                 9.3712                 9.3759
 IR Inten    --     40.9421                56.0411                30.3812

 - Thermochemistry -
 -------------------
 Temperature   298.150 Kelvin.  Pressure   1.00000 Atm.
 Atom     1 has atomic number  6 and mass  12.00000

 Molecular mass:   244.06954 amu.
 Principal axes and moments of inertia in atomic units:
                           1         2         3
     Eigenvalues --  2070.772266263.374967256.80746
           X            0.99999  -0.00308   0.00238
           Y            0.00309   0.99998  -0.00546
           Z           -0.00237   0.00547   0.99998
 This molecule is an asymmetric top.
 Rotational symmetry number  1.
 Warning -- assumption of classical behavior for rotation
           may cause significant error
 Rotational temperatures (Kelvin)      0.04183     0.01383     0.01194
 Rotational constants (GHZ):           0.87153     0.28814     0.24870
 Zero-point vibrational energy     598929.6 (Joules/Mol)
                                  143.14762 (Kcal/Mol)
 Warning -- explicit consideration of  23 degrees of freedom as
           vibrations may cause significant error
 Vibrational temperatures:     41.23    53.69    73.35    79.88   162.04
          (Kelvin)            213.75   231.65   244.00   292.35   330.93
                              357.08   398.91   424.27   464.47   524.17
                              556.54   588.93   606.98   669.88   754.08
                              773.91   785.40   812.52   893.73   928.74
                             1002.05  1019.07  1044.87  1061.56  1116.85
                             1132.34  1188.27  1261.50  1308.15  1329.99
                             1354.14  1399.56  1421.35  1502.25  1534.75
                             1565.23  1571.67  1615.01  1622.52  1679.31
                             1681.83  1749.30  1774.33  1779.28  1796.26
                             1808.52  1843.48  1880.56  1903.42  1907.31
                             1955.27  1974.86  1987.36  2026.28  2026.86
                             2041.50  2044.94  2061.78  2077.20  2120.54
                             2158.38  2450.15  2590.42  2603.54  4378.06
                             4398.42  4432.02  4439.59  4471.05  4499.89
                             4658.97  4710.80  5223.16  5505.29  5556.64
                             5559.20

 Zero-point correction=                           0.228120 (Hartree/Particle)
 Thermal correction to Energy=                    0.243681
 Thermal correction to Enthalpy=                  0.244625
 Thermal correction to Gibbs Free Energy=         0.183764
 Sum of electronic and zero-point Energies=           -909.987007
 Sum of electronic and thermal Energies=              -909.971446
 Sum of electronic and thermal Enthalpies=            -909.970502
 Sum of electronic and thermal Free Energies=         -910.031364

                     E (Thermal)             CV                S
                      KCal/Mol        Cal/Mol-Kelvin    Cal/Mol-Kelvin
 Total                  152.912             58.452            128.094
 Electronic               0.000              0.000              0.000
 Translational            0.889              2.981             42.378
 Rotational               0.889              2.981             32.909
 Vibrational            151.135             52.491             52.807
 Vibration     1          0.593              1.984              5.920
 Vibration     2          0.594              1.982              5.397
 Vibration     3          0.595              1.977              4.779
 Vibration     4          0.596              1.975              4.610
 Vibration     5          0.607              1.939              3.223
 Vibration     6          0.618              1.904              2.691
 Vibration     7          0.622              1.890              2.538
 Vibration     8          0.625              1.880              2.440
 Vibration     9          0.639              1.835              2.104
 Vibration    10          0.652              1.795              1.879
 Vibration    11          0.662              1.766              1.743
 Vibration    12          0.678              1.716              1.551
 Vibration    13          0.689              1.683              1.446
 Vibration    14          0.708              1.630              1.296
 Vibration    15          0.738              1.546              1.104
 Vibration    16          0.755              1.498              1.012
 Vibration    17          0.774              1.450              0.929
 Vibration    18          0.784              1.423              0.886
 Vibration    19          0.823              1.326              0.750
 Vibration    20          0.879              1.197              0.601
 Vibration    21          0.893              1.166              0.570
 Vibration    22          0.901              1.149              0.553
 Vibration    23          0.921              1.108              0.514

                           ! Non-Optimized Parameters !
 Normal termination of Gaussian 16 at Thu Oct 17 13:11:05 2024.
