 Gaussian 16, Revision C.01,
 Gaussian 16:  EM64L-G16RevC.01  3-Jul-2019

 ------------------------------------------------------
 # PBE1PBE/aug-cc-pVDZ opt freq EmpiricalDispersion=GD3
 ------------------------------------------------------

 ----
 blah
 ----
 Symbolic Z-matrix:
 Charge = -1 Multiplicity = 1

 SCF Done:  E(RPBE1PBE) =  -909.642930551     A.U. after   16 cycles
 SCF Done:  E(RPBE1PBE) =  -909.655023447     A.U. after   12 cycles
 SCF Done:  E(RPBE1PBE) =  -909.657074478     A.U. after   12 cycles
 SCF Done:  E(RPBE1PBE) =  -909.657916395     A.U. after   12 cycles
 SCF Done:  E(RPBE1PBE) =  -909.658674704     A.U. after   13 cycles
 SCF Done:  E(RPBE1PBE) =  -909.660093524     A.U. after   11 cycles
 SCF Done:  E(RPBE1PBE) =  -909.662394293     A.U. after   13 cycles
 SCF Done:  E(RPBE1PBE) =  -909.665576510     A.U. after   15 cycles
 SCF Done:  E(RPBE1PBE) =  -909.670184418     A.U. after   13 cycles
 SCF Done:  E(RPBE1PBE) =  -909.672750165     A.U. after   13 cycles
 SCF Done:  E(RPBE1PBE) =  -909.677754158     A.U. after   12 cycles
 SCF Done:  E(RPBE1PBE) =  -909.677767469     A.U. after   10 cycles
 SCF Done:  E(RPBE1PBE) =  -909.677772489     A.U. after   10 cycles
 SCF Done:  E(RPBE1PBE) =  -909.677777111     A.U. after    9 cycles
 SCF Done:  E(RPBE1PBE) =  -909.677780105     A.U. after    9 cycles
 SCF Done:  E(RPBE1PBE) =  -909.677781520     A.U. after    9 cycles
 SCF Done:  E(RPBE1PBE) =  -909.677782374     A.U. after    9 cycles
 SCF Done:  E(RPBE1PBE) =  -909.677782652     A.U. after    9 cycles
 SCF Done:  E(RPBE1PBE) =  -909.677782675     A.U. after    7 cycles
 Optimization completed.
    -- Stationary point found.
 Normal termination of Gaussian 16 at Mon Oct 21 17:20:16 2024.

 ----------------------------------------------------------------------
 #N Geom=AllCheck Guess=TCheck SCRF=Check GenChk RPBE1PBE/Aug-CC-pVDZ F
 req
 ----------------------------------------------------------------------

 Structure from the checkpoint file:  "/scr/Gau-99471.chk"
 ----
 blah
 ----
 Charge = -1 Multiplicity = 1

                         Standard orientation:
 ---------------------------------------------------------------------
 Center     Atomic      Atomic             Coordinates (Angstroms)
 Number     Number       Type             X           Y           Z
 ---------------------------------------------------------------------
      1          6           0       -2.654337   -0.601849    0.239211
      2          6           0       -1.200807   -0.892567    0.640626
      3          6           0       -0.421536   -0.303893   -0.546723
      4          8           0       -1.014194   -2.263503    0.817381
      5          1           0       -0.935721   -0.312245    1.542793
      6          8           0       -1.137393    0.870090   -0.881809
      7          1           0       -0.437484   -1.027216   -1.379679
      8          7           0        0.960415    0.039432   -0.272143
      9          6           0       -2.535677    0.643469   -0.650956
     10          1           0       -3.287326   -0.402925    1.118691
     11          8           0       -3.166521   -1.689681   -0.499525
     12          6           0       -3.089479    1.921147   -0.054011
     13          1           0       -3.038184    0.431065   -1.608686
     14          8           0       -2.469263    2.247841    1.173667
     15          1           0       -4.161978    1.794424    0.148313
     16          1           0       -2.971169    2.740772   -0.785176
     17          1           0       -2.589927   -2.431233   -0.236609
     18          1           0       -0.068083   -2.416872    0.494421
     19          1           0       -1.518475    2.178311    1.021765
     20          6           0        1.416640    1.329491   -0.247872
     21          6           0        2.728161    1.586992   -0.060732
     22          6           0        3.673896    0.473853    0.082877
     23          7           0        3.164545   -0.802569    0.057638
     24          6           0        1.872050   -1.035776   -0.097311
     25          1           0        0.668533    2.103146   -0.403616
     26          1           0        3.103116    2.608404   -0.040999
     27          8           0        4.885410    0.694680    0.220637
     28          8           0        1.355523   -2.190535   -0.105393
 ---------------------------------------------------------------------

 SCF Done:  E(RPBE1PBE) =  -909.677782675     A.U. after    1 cycles

 The electronic state is 1-A.
 Alpha  occ. eigenvalues --  -19.16007 -19.15042 -19.12729 -19.10989 -19.05483
 Alpha  occ. eigenvalues --  -19.02751 -14.32874 -14.22363 -10.22453 -10.21759
 Alpha  occ. eigenvalues --  -10.20418 -10.20359 -10.19258 -10.18630 -10.17515
 Alpha  occ. eigenvalues --  -10.16578 -10.10410  -1.01964  -0.98074  -0.97132
 Alpha  occ. eigenvalues --   -0.95090  -0.93069  -0.89554  -0.86079  -0.77085
 Alpha  occ. eigenvalues --   -0.71262  -0.69550  -0.66157  -0.60405  -0.55410
 Alpha  occ. eigenvalues --   -0.54403  -0.51462  -0.49311  -0.46808  -0.44989
 Alpha  occ. eigenvalues --   -0.43463  -0.42995  -0.42702  -0.40648  -0.38718
 Alpha  occ. eigenvalues --   -0.37912  -0.36199  -0.34593  -0.33900  -0.33765
 Alpha  occ. eigenvalues --   -0.32043  -0.31067  -0.30469  -0.29398  -0.28028
 Alpha  occ. eigenvalues --   -0.27387  -0.27086  -0.25033  -0.24807  -0.23054
 Alpha  occ. eigenvalues --   -0.21341  -0.20318  -0.19359  -0.18739  -0.15811
 Alpha  occ. eigenvalues --   -0.13535  -0.11846  -0.10797  -0.10478
 Alpha virt. eigenvalues --    0.07105   0.08536   0.08787   0.09693   0.10809
 Alpha virt. eigenvalues --    0.11081   0.11388   0.11800   0.12033   0.12530
 Alpha virt. eigenvalues --    0.13780   0.14961   0.15187   0.15422   0.15683

 Mulliken charges:
               1
     1  C    0.972265
     2  C    0.874990
     3  C    0.608800
     4  O   -0.767357
     5  H   -0.511880
     6  O   -0.769386
     7  H   -0.585038
     8  N    0.081817
     9  C    1.001777
    10  H   -0.374430
    11  O   -0.722368
    12  C    1.159487
    13  H   -0.528887
    14  O   -0.524777
    15  H   -0.275416
    16  H   -0.260737
    17  H    0.188461
    18  H    0.299428
    19  H    0.167318
    20  C    0.710923
    21  C    0.852815
    22  C    0.471463
    23  N   -0.508820
    24  C    0.483227
    25  H   -0.796939
    26  H   -0.587281
    27  O   -0.788115
    28  O   -0.871340
 Sum of Mulliken charges =  -1.00000

 Dipole moment (field-independent basis, Debye):
    X=            -11.6232    Y=              4.2541    Z=             -1.4596  Tot=             12.4630
 Quadrupole moment (field-independent basis, Debye-Ang):
   XX=           -178.9642   YY=           -119.7026   ZZ=           -105.4089
   XY=             -0.0155   XZ=             -0.3044   YZ=             -1.9509

  Exact polarizability:     204.920      10.651     155.817       6.954       0.433     107.369
 Approx polarizability:     268.140      22.795     224.494      12.731       3.104     163.540

                      1                      2                      3
                      A                      A                      A
 Frequencies --     26.6620                45.3691                63.7915
 Red. masses --      6.5715                 8.6416                 5.8145
 Frc consts  --      0.0028                 0.0105                 0.0139
 IR Inten    --      2.2588                 0.6926                 6.1601

                      4                      5                      6
                      A                      A                      A
 Frequencies --     79.0722               120.9299               171.4649
 Red. masses --      8.7025                 4.8628                 6.3529
 Frc consts  --      0.0321                 0.0419                 0.1100
 IR Inten    --      1.6390                 1.9566                 3.7598

                      7                      8                      9
                      A                      A                      A
 Frequencies --    174.5237               211.5771               248.2555
 Red. masses --      7.0828                 8.0788                 5.8573
 Frc consts  --      0.1271                 0.2131                 0.2127
 IR Inten    --      3.6119                 1.1930                12.9720

                     10                     11                     12
                      A                      A                      A
 Frequencies --    264.1297               290.5005               325.2321
 Red. masses --      4.7344                 6.6613                 3.4240
 Frc consts  --      0.1946                 0.3312                 0.2134
 IR Inten    --     21.9944                11.7124                 2.7926

                     13                     14                     15
                      A                      A                      A
 Frequencies --    338.1745               370.4788               413.2070
 Red. masses --      5.7906                 5.4796                 3.0505
 Frc consts  --      0.3902                 0.4431                 0.3069
 IR Inten    --     16.0350                 6.0259                16.6986

                     16                     17                     18
                      A                      A                      A
 Frequencies --    428.6461               456.5734               466.3921
 Red. masses --      2.7786                 7.4244                 1.3844
 Frc consts  --      0.3008                 0.9119                 0.1774
 IR Inten    --     41.0310                28.8891                62.0996

                     19                     20                     21
                      A                      A                      A
 Frequencies --    541.8996               556.5083               582.4755
 Red. masses --      6.3713                 5.9394                 9.1897
 Frc consts  --      1.1023                 1.0838                 1.8370
 IR Inten    --     10.4527                 5.2987                 7.3408

                     22                     23                     24
                      A                      A                      A
 Frequencies --    591.4558               631.2328               661.3746
 Red. masses --      1.1289                 5.7700                 5.7707
 Frc consts  --      0.2327                 1.3546                 1.4872
 IR Inten    --     79.2051                20.7632                 9.1277

                     25                     26                     27
                      A                      A                      A
 Frequencies --    721.8227               730.4659               734.6978
 Red. masses --      1.7146                 5.4926                 4.6639
 Frc consts  --      0.5263                 1.7267                 1.4833
 IR Inten    --     11.5332                24.1955                15.9997

                     28                     29                     30
                      A                      A                      A
 Frequencies --    784.9902               792.3052               834.0956
 Red. masses --      8.6142                10.3402                 3.4844
 Frc consts  --      3.1275                 3.8244                 1.4283
 IR Inten    --      7.5257                13.9957                37.4146

                     31                     32                     33
                      A                      A                      A
 Frequencies --    886.8924               906.0646               924.9351
 Red. masses --      3.2172                 3.3652                 2.3318
 Frc consts  --      1.4910                 1.6277                 1.1753
 IR Inten    --      2.0937                 6.5213                18.2177

                     34                     35                     36
                      A                      A                      A
 Frequencies --    935.0238               958.7376               962.9687
 Red. masses --      1.7765                 1.3212                 1.3345
 Frc consts  --      0.9151                 0.7155                 0.7291
 IR Inten    --     10.1645                27.5766                30.7685

                     37                     38                     39
                      A                      A                      A
 Frequencies --    999.7485              1037.2187              1064.1745
 Red. masses --      3.9681                 2.8875                 2.9438
 Frc consts  --      2.3367                 1.8303                 1.9642
 IR Inten    --     23.5566                17.3324                23.6328

                     40                     41                     42
                      A                      A                      A
 Frequencies --   1085.6858              1104.7853              1123.7934
 Red. masses --      3.4156                 1.7669                 1.9384
 Frc consts  --      2.3720                 1.2706                 1.4424
 IR Inten    --      9.6453                52.0354                63.6547

                     43                     44                     45
                      A                      A                      A
 Frequencies --   1136.7078              1164.9668              1175.5964
 Red. masses --      3.6340                 3.6191                 3.2411
 Frc consts  --      2.7665                 2.8938                 2.6391
 IR Inten    --    109.0233               121.2534                51.0817

                     46                     47                     48
                      A                      A                      A
 Frequencies --   1220.1915              1220.5105              1228.5098
 Red. masses --      1.4157                 1.6447                 1.4071
 Frc consts  --      1.2419                 1.4435                 1.2512
 IR Inten    --     17.5562                24.5875                26.1033

                     49                     50                     51
                      A                      A                      A
 Frequencies --   1276.4168              1294.1309              1297.3868
 Red. masses --      1.4281                 1.3549                 1.4565
 Frc consts  --      1.3708                 1.3370                 1.4445
 IR Inten    --     18.9540                62.9374                27.5533

                     52                     53                     54
                      A                      A                      A
 Frequencies --   1310.1700              1339.7350              1345.0764
 Red. masses --      1.7770                 1.6452                 2.1852
 Frc consts  --      1.7972                 1.7398                 2.3294
 IR Inten    --     51.1146               117.0042               122.4270

                     55                     56                     57
                      A                      A                      A
 Frequencies --   1353.4410              1358.2619              1372.1460
 Red. masses --      1.4138                 5.0019                 1.4992
 Frc consts  --      1.5259                 5.4369                 1.6631
 IR Inten    --      2.3869                42.5715                10.5012

                     58                     59                     60
                      A                      A                      A
 Frequencies --   1391.7131              1409.5867              1421.3426
 Red. masses --      1.3588                 1.5522                 1.4669
 Frc consts  --      1.5506                 1.8171                 1.7460
 IR Inten    --    105.4869                43.0626                64.6354

                     61                     62                     63
                      A                      A                      A
 Frequencies --   1431.8271              1477.1050              1485.7641
 Red. masses --      1.6134                 1.0893                 4.1316
 Frc consts  --      1.9488                 1.4003                 5.3737
 IR Inten    --    131.6342                 2.6264                24.9132

                     64                     65                     66
                      A                      A                      A
 Frequencies --   1513.6358              1617.9139              1703.0242
 Red. masses --      1.5532                 4.2898                10.1993
 Frc consts  --      2.0966                 6.6161                17.4286
 IR Inten    --    695.5666               428.0332               195.5546

                     67                     68                     69
                      A                      A                      A
 Frequencies --   1717.4929              2928.8423              3012.9931
 Red. masses --      7.1574                 1.0759                 1.0761
 Frc consts  --     12.4393                 5.4374                 5.7555
 IR Inten    --    842.8724              1381.7509                61.6494

                     70                     71                     72
                      A                      A                      A
 Frequencies --   3013.8253              3036.9683              3047.2649
 Red. masses --      1.0755                 1.0853                 1.0868
 Frc consts  --      5.7559                 5.8978                 5.9459
 IR Inten    --     57.7085                30.1445                46.3693

                     73                     74                     75
                      A                      A                      A
 Frequencies --   3052.0394              3108.8948              3225.4523
 Red. masses --      1.0857                 1.0960                 1.0869
 Frc consts  --      5.9588                 6.2411                 6.6622
 IR Inten    --     74.2007                36.7005                 1.9963

                     76                     77                     78
                      A                      A                      A
 Frequencies --   3247.3760              3630.4331              3818.0288
 Red. masses --      1.0990                 1.0647                 1.0655
 Frc consts  --      6.8285                 8.2683                 9.1513
 IR Inten    --     15.6710               123.8995                63.9602

 - Thermochemistry -
 -------------------
 Temperature   298.150 Kelvin.  Pressure   1.00000 Atm.
 Atom     1 has atomic number  6 and mass  12.00000

 Molecular mass:   243.06171 amu.
 Principal axes and moments of inertia in atomic units:
                           1         2         3
     Eigenvalues --  2008.061585767.977627227.31492
           X            1.00000  -0.00237   0.00050
           Y            0.00237   0.99999  -0.00350
           Z           -0.00049   0.00350   0.99999
 This molecule is an asymmetric top.
 Rotational symmetry number  1.
 Warning -- assumption of classical behavior for rotation
           may cause significant error
 Rotational temperatures (Kelvin)      0.04313     0.01502     0.01198
 Rotational constants (GHZ):           0.89875     0.31289     0.24971
 Zero-point vibrational energy     562442.9 (Joules/Mol)
                                  134.42707 (Kcal/Mol)
 Warning -- explicit consideration of  22 degrees of freedom as
           vibrations may cause significant error
 Vibrational temperatures:     38.36    65.28    91.78   113.77   173.99
          (Kelvin)            246.70   251.10   304.41   357.18   380.02
                              417.97   467.94   486.56   533.04   594.51
                              616.73   656.91   671.03   779.67   800.69
                              838.05   850.97   908.20   951.57  1038.54
                             1050.98  1057.07  1129.43  1139.95  1200.08
                             1276.04  1303.62  1330.78  1345.29  1379.41
                             1385.50  1438.42  1492.33  1531.11  1562.06
                             1589.54  1616.89  1635.47  1676.13  1691.42
                             1755.58  1756.04  1767.55  1836.48  1861.97
                             1866.65  1885.04  1927.58  1935.26  1947.30
                             1954.24  1974.21  2002.36  2028.08  2044.99
                             2060.08  2125.22  2137.68  2177.78  2327.82
                             2450.27  2471.09  4213.95  4335.03  4336.22
                             4369.52  4384.33  4391.20  4473.01  4640.71
                             4672.25  5223.38  5493.29

 Zero-point correction=                           0.214223 (Hartree/Particle)
 Thermal correction to Energy=                    0.228627
 Thermal correction to Enthalpy=                  0.229571
 Thermal correction to Gibbs Free Energy=         0.171536
 Sum of electronic and zero-point Energies=           -909.463560
 Sum of electronic and thermal Energies=              -909.449156
 Sum of electronic and thermal Enthalpies=            -909.448212
 Sum of electronic and thermal Free Energies=         -909.506247

                     E (Thermal)             CV                S
                      KCal/Mol        Cal/Mol-Kelvin    Cal/Mol-Kelvin
 Total                  143.465             55.255            122.145
 Electronic               0.000              0.000              0.000
 Translational            0.889              2.981             42.365
 Rotational               0.889              2.981             32.793
 Vibrational            141.688             49.294             46.987
 Vibration     1          0.593              1.984              6.063
 Vibration     2          0.595              1.979              5.010
 Vibration     3          0.597              1.972              4.336
 Vibration     4          0.600              1.963              3.914
 Vibration     5          0.609              1.932              3.085
 Vibration     6          0.626              1.878              2.419
 Vibration     7          0.627              1.874              2.386
 Vibration     8          0.643              1.823              2.030
 Vibration     9          0.662              1.766              1.743
 Vibration    10          0.671              1.739              1.634
 Vibration    11          0.686              1.691              1.471
 Vibration    12          0.709              1.625              1.284
 Vibration    13          0.718              1.599              1.221
 Vibration    14          0.742              1.533              1.078
 Vibration    15          0.777              1.442              0.915
 Vibration    16          0.790              1.408              0.863
 Vibration    17          0.815              1.346              0.776
 Vibration    18          0.824              1.325              0.748
 Vibration    19          0.897              1.157              0.561
 Vibration    20          0.912              1.125              0.531
 Vibration    21          0.939              1.069              0.481
 Vibration    22          0.949              1.050              0.465

 Optimization completed.
    -- Stationary point found.
 Normal termination of Gaussian 16 at Mon Oct 21 17:35:09 2024.
