 Gaussian 16, Revision C.01,
 Gaussian 16:  EM64L-G16RevC.01  3-Jul-2019

 ------------------------------------------------------
 # PBE1PBE/aug-cc-pVDZ opt freq EmpiricalDispersion=GD3
 ------------------------------------------------------

 ----
 blah
 ----
 Symbolic Z-matrix:
 Charge =  0 Multiplicity = 2

 SCF Done:  E(UPBE1PBE) =  -909.503532734     A.U. after   35 cycles
 SCF Done:  E(UPBE1PBE) =  -909.506905993     A.U. after   26 cycles
 SCF Done:  E(UPBE1PBE) =  -909.504692666     A.U. after   23 cycles
 SCF Done:  E(UPBE1PBE) =  -909.508880124     A.U. after   24 cycles
 SCF Done:  E(UPBE1PBE) =  -909.509728072     A.U. after   22 cycles
 SCF Done:  E(UPBE1PBE) =  -909.509970452     A.U. after   22 cycles
 SCF Done:  E(UPBE1PBE) =  -909.510101909     A.U. after   20 cycles
 SCF Done:  E(UPBE1PBE) =  -909.510177508     A.U. after   21 cycles
 SCF Done:  E(UPBE1PBE) =  -909.510232598     A.U. after   20 cycles
 SCF Done:  E(UPBE1PBE) =  -909.510268679     A.U. after   20 cycles
 SCF Done:  E(UPBE1PBE) =  -909.521950420     A.U. after   19 cycles
 SCF Done:  E(UPBE1PBE) =  -909.521995704     A.U. after   20 cycles
 SCF Done:  E(UPBE1PBE) =  -909.522012201     A.U. after   20 cycles
 SCF Done:  E(UPBE1PBE) =  -909.522020668     A.U. after   21 cycles
 SCF Done:  E(UPBE1PBE) =  -909.522022107     A.U. after   14 cycles
 SCF Done:  E(UPBE1PBE) =  -909.522023000     A.U. after   19 cycles
 SCF Done:  E(UPBE1PBE) =  -909.522023372     A.U. after   18 cycles
 SCF Done:  E(UPBE1PBE) =  -909.522023944     A.U. after   20 cycles
 SCF Done:  E(UPBE1PBE) =  -909.522024253     A.U. after   20 cycles
 Optimization completed.
    -- Stationary point found.
 Normal termination of Gaussian 16 at Sat Oct 26 21:56:31 2024.

 ----------------------------------------------------------------------
 #N Geom=AllCheck Guess=TCheck SCRF=Check GenChk UPBE1PBE/Aug-CC-pVDZ F
 req
 ----------------------------------------------------------------------

 Structure from the checkpoint file:  "/scr/Gau-89680.chk"
 ----
 blah
 ----
 Charge =  0 Multiplicity = 2

                         Standard orientation:
 ---------------------------------------------------------------------
 Center     Atomic      Atomic             Coordinates (Angstroms)
 Number     Number       Type             X           Y           Z
 ---------------------------------------------------------------------
      1          6           0       -2.667468   -0.561079    0.182444
      2          6           0       -1.237219   -0.855036    0.650651
      3          6           0       -0.444823   -0.348026   -0.583257
      4          8           0       -1.104694   -2.207445    0.932680
      5          1           0       -0.985444   -0.211714    1.511131
      6          8           0       -1.121438    0.789636   -1.022237
      7          1           0       -0.406306   -1.147013   -1.342401
      8          7           0        0.940765    0.013389   -0.301910
      9          6           0       -2.523351    0.702648   -0.659425
     10          1           0       -3.335529   -0.406119    1.044098
     11          8           0       -3.121585   -1.604205   -0.644270
     12          6           0       -2.926235    1.986616    0.033827
     13          1           0       -3.106294    0.583517   -1.583662
     14          8           0       -2.301508    2.155995    1.292173
     15          1           0       -4.007635    1.953787    0.222126
     16          1           0       -2.727496    2.840401   -0.634170
     17          1           0       -2.759571   -2.419144   -0.263996
     18          1           0       -0.183742   -2.457765    0.697809
     19          1           0       -1.382908    2.396667    1.144379
     20          6           0        1.341251    1.282894   -0.287210
     21          6           0        2.679867    1.561936   -0.091069
     22          6           0        3.614380    0.451387    0.053946
     23          7           0        3.169120   -0.827527    0.046701
     24          6           0        1.882263   -1.104959   -0.063921
     25          1           0        0.583545    2.038250   -0.483588
     26          1           0        3.053389    2.582543   -0.053316
     27          8           0        4.820329    0.736495    0.206423
     28          8           0        1.350996   -2.214566   -0.000752
 ---------------------------------------------------------------------

 SCF Done:  E(UPBE1PBE) =  -909.522024253     A.U. after    1 cycles

 The electronic state is 2-A.
 Alpha  occ. eigenvalues --  -19.29182 -19.26337 -19.24759 -19.24571 -19.24552
 Alpha  occ. eigenvalues --  -19.22399 -14.54116 -14.40587 -10.39358 -10.37410
 Alpha  occ. eigenvalues --  -10.35990 -10.35620 -10.32506 -10.32191 -10.31930
 Alpha  occ. eigenvalues --  -10.31382 -10.31355  -1.15926  -1.12394  -1.10262
 Alpha  occ. eigenvalues --   -1.09892  -1.09329  -1.06883  -1.05147  -0.95914
 Alpha  occ. eigenvalues --   -0.87341  -0.83827  -0.81323  -0.74744  -0.72654
 Alpha  occ. eigenvalues --   -0.68784  -0.66515  -0.64756  -0.61954  -0.60611
 Alpha  occ. eigenvalues --   -0.59180  -0.56081  -0.55652  -0.54599  -0.53366
 Alpha  occ. eigenvalues --   -0.52357  -0.51608  -0.51078  -0.49033  -0.48836
 Alpha  occ. eigenvalues --   -0.47659  -0.46303  -0.45677  -0.44771  -0.43637
 Alpha  occ. eigenvalues --   -0.43241  -0.42113  -0.40013  -0.38812  -0.37150
 Alpha  occ. eigenvalues --   -0.34784  -0.33609  -0.32770  -0.32448  -0.31708
 Alpha  occ. eigenvalues --   -0.31376  -0.30437  -0.30149  -0.29614
 Alpha virt. eigenvalues --   -0.07813  -0.03065  -0.02557  -0.00539  -0.00136
 Alpha virt. eigenvalues --    0.00122   0.01200   0.01695   0.02326   0.02798
 Alpha virt. eigenvalues --    0.03000   0.04567   0.05196   0.05457   0.05744

  Beta  occ. eigenvalues --  -19.29162 -19.26337 -19.24549 -19.24537 -19.23672
  Beta  occ. eigenvalues --  -19.22442 -14.53377 -14.40488 -10.39435 -10.37426
  Beta  occ. eigenvalues --  -10.36234 -10.35808 -10.32431 -10.32192 -10.31373
  Beta  occ. eigenvalues --  -10.31354 -10.31210  -1.15691  -1.12114  -1.09913
  Beta  occ. eigenvalues --   -1.09332  -1.08390  -1.06827  -1.04388  -0.95328
  Beta  occ. eigenvalues --   -0.86409  -0.83736  -0.80702  -0.74366  -0.72387
  Beta  occ. eigenvalues --   -0.68621  -0.66250  -0.64620  -0.61663  -0.60322
  Beta  occ. eigenvalues --   -0.58787  -0.55891  -0.55568  -0.54528  -0.53102
  Beta  occ. eigenvalues --   -0.51840  -0.50903  -0.50458  -0.48911  -0.48396
  Beta  occ. eigenvalues --   -0.47237  -0.45699  -0.44719  -0.44463  -0.43060
  Beta  occ. eigenvalues --   -0.41823  -0.41208  -0.39855  -0.38487  -0.37012
  Beta  occ. eigenvalues --   -0.34302  -0.32934  -0.32355  -0.31825  -0.31121
  Beta  occ. eigenvalues --   -0.30833  -0.29501  -0.27920
  Beta virt. eigenvalues --   -0.20445  -0.05803  -0.03008  -0.01595  -0.00510
  Beta virt. eigenvalues --   -0.00104   0.00203   0.01260   0.01750   0.02365
  Beta virt. eigenvalues --    0.02852   0.03017   0.04600   0.05264   0.05518

 Mulliken charges and spin densities:
               1          2
     1  C    1.067121   0.006967
     2  C    0.875286   0.039202
     3  C    0.665333  -0.059951
     4  O   -0.679794   0.006537
     5  H   -0.479188   0.000178
     6  O   -0.763142   0.006767
     7  H   -0.520991   0.025795
     8  N    0.108507   0.351360
     9  C    0.984512  -0.002308
    10  H   -0.356562   0.003490
    11  O   -0.700120   0.004586
    12  C    1.016487   0.000821
    13  H   -0.456842   0.000691
    14  O   -0.455363  -0.000045
    15  H   -0.273038  -0.000062
    16  H   -0.251144  -0.000124
    17  H    0.175164  -0.000268
    18  H    0.227746   0.000586
    19  H    0.126837  -0.000074
    20  C    0.755537  -0.216833
    21  C    0.848426   0.634025
    22  C    0.513217  -0.197589
    23  N   -0.440591   0.060031
    24  C    0.539932  -0.048281
    25  H   -0.701118   0.011786
    26  H   -0.518552  -0.023066
    27  O   -0.615869   0.408873
    28  O   -0.691792  -0.013093
 Sum of Mulliken charges =  -0.00000   1.00000

 Dipole moment (field-independent basis, Debye):
    X=             -4.7003    Y=              5.6680    Z=             -1.3278  Tot=              7.4822
 Quadrupole moment (field-independent basis, Debye-Ang):
   XX=           -126.4762   YY=            -98.7114   ZZ=           -100.5605
   XY=              5.3381   XZ=             -0.5004   YZ=             -1.6751

  Exact polarizability:     276.362      14.353     153.752      11.522      -2.350      99.153
 Approx polarizability:     354.863      40.865     236.972      17.576      -2.693     152.928

                      1                      2                      3
                      A                      A                      A
 Frequencies --     23.5154                42.2150                65.0541
 Red. masses --      6.8057                 9.7837                 5.6417
 Frc consts  --      0.0022                 0.0103                 0.0141
 IR Inten    --      3.4907                 3.1699                 6.0654

                      4                      5                      6
                      A                      A                      A
 Frequencies --     89.7101               113.8756               154.3623
 Red. masses --      8.1106                 4.0647                 8.4081
 Frc consts  --      0.0385                 0.0311                 0.1180
 IR Inten    --      7.0192                 7.1551                 9.0296

                      7                      8                      9
                      A                      A                      A
 Frequencies --    171.1785               188.6800               218.8624
 Red. masses --      5.3942                 6.3324                 1.4222
 Frc consts  --      0.0931                 0.1328                 0.0401
 IR Inten    --     15.5544                 1.7873               103.4003

                     10                     11                     12
                      A                      A                      A
 Frequencies --    230.8489               266.8084               286.3841
 Red. masses --      3.8688                 4.9111                 5.0420
 Frc consts  --      0.1215                 0.2060                 0.2436
 IR Inten    --     61.2694                20.7777                 4.5458

                     13                     14                     15
                      A                      A                      A
 Frequencies --    305.1623               333.9290               352.8284
 Red. masses --      5.2314                 2.7893                 6.1221
 Frc consts  --      0.2870                 0.1833                 0.4490
 IR Inten    --     19.6069                37.1198                26.5286

                     16                     17                     18
                      A                      A                      A
 Frequencies --    381.9362               404.7873               455.2891
 Red. masses --      3.9674                 9.9732                 3.6011
 Frc consts  --      0.3410                 0.9628                 0.4398
 IR Inten    --     26.0970                53.3632                 8.7723

                     19                     20                     21
                      A                      A                      A
 Frequencies --    503.2325               518.9700               546.0374
 Red. masses --      1.3394                 4.5626                 7.6921
 Frc consts  --      0.1998                 0.7240                 1.3513
 IR Inten    --    128.6450                59.3372                94.0383

                     22                     23                     24
                      A                      A                      A
 Frequencies --    557.2355               604.5308               624.5244
 Red. masses --      6.1352                 5.1817                 6.6373
 Frc consts  --      1.1224                 1.1157                 1.5252
 IR Inten    --     34.6502                54.0218                13.3696

                     25                     26                     27
                      A                      A                      A
 Frequencies --    655.3858               689.9346               704.9903
 Red. masses --      2.3749                 1.9919                 2.5452
 Frc consts  --      0.6010                 0.5586                 0.7453
 IR Inten    --      2.4292                49.6649                30.5461

                     28                     29                     30
                      A                      A                      A
 Frequencies --    728.5810               759.4301               785.1361
 Red. masses --      3.0317                 4.9777                 8.5050
 Frc consts  --      0.9482                 1.6914                 3.0890
 IR Inten    --     11.5763                30.3503                13.3131

                     31                     32                     33
                      A                      A                      A
 Frequencies --    811.2228               874.2399               895.7801
 Red. masses --      2.0379                 3.7369                 3.7735
 Frc consts  --      0.7902                 1.6828                 1.7840
 IR Inten    --     36.6860                 9.1238                10.1746

                     34                     35                     36
                      A                      A                      A
 Frequencies --    914.4279               917.3158               938.7772
 Red. masses --      2.3138                 4.7228                 2.3759
 Frc consts  --      1.1399                 2.3415                 1.2337
 IR Inten    --      3.5648                73.0148                 7.7137

                     37                     38                     39
                      A                      A                      A
 Frequencies --    973.3075              1014.9190              1040.4313
 Red. masses --      1.5296                 3.0063                 3.0795
 Frc consts  --      0.8538                 1.8245                 1.9641
 IR Inten    --      8.1126                19.0129                 7.3130

                     40                     41                     42
                      A                      A                      A
 Frequencies --   1050.3110              1080.7919              1087.1849
 Red. masses --      3.7734                 2.3658                 1.7951
 Frc consts  --      2.4526                 1.6282                 1.2501
 IR Inten    --    375.1590                87.0656                35.4814

                     43                     44                     45
                      A                      A                      A
 Frequencies --   1127.6631              1136.7235              1167.2593
 Red. masses --      2.4262                 3.2816                 3.5244
 Frc consts  --      1.8178                 2.4983                 2.8293
 IR Inten    --     24.6492                71.1004               141.5450

                     46                     47                     48
                      A                      A                      A
 Frequencies --   1178.8439              1192.7388              1213.7745
 Red. masses --      2.6742                 2.5366                 1.3106
 Frc consts  --      2.1895                 2.1261                 1.1377
 IR Inten    --     74.6338                57.5273                49.6019

                     49                     50                     51
                      A                      A                      A
 Frequencies --   1226.5202              1255.6295              1271.1864
 Red. masses --      1.3935                 1.3705                 1.2927
 Frc consts  --      1.2351                 1.2731                 1.2307
 IR Inten    --     39.5776                37.4017                 7.8475

                     52                     53                     54
                      A                      A                      A
 Frequencies --   1291.9612              1310.9499              1341.1518
 Red. masses --      1.5268                 1.4613                 1.3690
 Frc consts  --      1.5015                 1.4796                 1.4508
 IR Inten    --      9.6631                 3.8182                10.6650

                     55                     56                     57
                      A                      A                      A
 Frequencies --   1356.2911              1359.0209              1368.7561
 Red. masses --      1.4013                 1.4405                 1.4787
 Frc consts  --      1.5188                 1.5675                 1.6322
 IR Inten    --     33.8276                17.9592                56.1805

                     58                     59                     60
                      A                      A                      A
 Frequencies --   1381.0508              1390.1132              1398.9400
 Red. masses --      1.4261                 3.6243                 1.3718
 Frc consts  --      1.6026                 4.1264                 1.5817
 IR Inten    --    100.7724                18.9961                36.2997

                     61                     62                     63
                      A                      A                      A
 Frequencies --   1420.9568              1436.0070              1462.3063
 Red. masses --      2.0712                 2.2099                 2.0434
 Frc consts  --      2.4639                 2.6849                 2.5744
 IR Inten    --    155.7046               210.3128                80.2356

                     64                     65                     66
                      A                      A                      A
 Frequencies --   1469.9084              1508.9521              1543.9974
 Red. masses --      1.0876                 5.5429                 4.4230
 Frc consts  --      1.3845                 7.4360                 6.2123
 IR Inten    --      9.3049                94.9919                18.9701

                     67                     68                     69
                      A                      A                      A
 Frequencies --   1754.8862              3036.8772              3045.3700
 Red. masses --     10.6258                 1.0829                 1.0661
 Frc consts  --     19.2802                 5.8845                 5.8253
 IR Inten    --    277.9199                11.4838                33.7187

                     70                     71                     72
                      A                      A                      A
 Frequencies --   3054.7829              3063.0877              3094.5829
 Red. masses --      1.0839                 1.0868                 1.0869
 Frc consts  --      5.9595                 6.0077                 6.1328
 IR Inten    --      6.2941                30.3519                25.1548

                     73                     74                     75
                      A                      A                      A
 Frequencies --   3125.5940              3243.3542              3263.4935
 Red. masses --      1.1002                 1.0901                 1.0971
 Frc consts  --      6.3325                 6.7563                 6.8846
 IR Inten    --     13.7025                 1.4934                 0.7741

                     76                     77                     78
                      A                      A                      A
 Frequencies --   3452.5489              3752.0461              3883.8989
 Red. masses --      1.0687                 1.0650                 1.0664
 Frc consts  --      7.5058                 8.8332                 9.4775
 IR Inten    --    338.4816                71.4849                22.0162

 - Thermochemistry -
 -------------------
 Temperature   298.150 Kelvin.  Pressure   1.00000 Atm.
 Atom     1 has atomic number  6 and mass  12.00000

 Molecular mass:   243.06171 amu.
 Principal axes and moments of inertia in atomic units:
                           1         2         3
     Eigenvalues --  2029.063915652.568567022.80451
           X            1.00000  -0.00275  -0.00007
           Y            0.00275   0.99999  -0.00243
           Z            0.00008   0.00243   1.00000
 This molecule is an asymmetric top.
 Rotational symmetry number  1.
 Warning -- assumption of classical behavior for rotation
           may cause significant error
 Rotational temperatures (Kelvin)      0.04269     0.01532     0.01233
 Rotational constants (GHZ):           0.88945     0.31928     0.25698
 Zero-point vibrational energy     555924.7 (Joules/Mol)
                                  132.86919 (Kcal/Mol)
 Warning -- explicit consideration of  23 degrees of freedom as
           vibrations may cause significant error
 Vibrational temperatures:     33.83    60.74    93.60   129.07   163.84
          (Kelvin)            222.09   246.29   271.47   314.89   332.14
                              383.88   412.04   439.06   480.45   507.64
                              549.52   582.40   655.06   724.04   746.68
                              785.63   801.74   869.78   898.55   942.95
                              992.66  1014.32  1048.27  1092.65  1129.64
                             1167.17  1257.84  1288.83  1315.66  1319.81
                             1350.69  1400.37  1460.24  1496.95  1511.16
                             1555.02  1564.22  1622.46  1635.49  1679.43
                             1696.09  1716.09  1746.35  1764.69  1806.57
                             1828.95  1858.84  1886.16  1929.62  1951.40
                             1955.33  1969.33  1987.02  2000.06  2012.76
                             2044.44  2066.09  2103.93  2114.87  2171.05
                             2221.47  2524.89  4369.39  4381.61  4395.15
                             4407.10  4452.41  4497.03  4666.46  4695.44
                             4967.45  5398.36  5588.06

 Zero-point correction=                           0.211741 (Hartree/Particle)
 Thermal correction to Energy=                    0.226942
 Thermal correction to Enthalpy=                  0.227887
 Thermal correction to Gibbs Free Energy=         0.167621
 Sum of electronic and zero-point Energies=           -909.310284
 Sum of electronic and thermal Energies=              -909.295082
 Sum of electronic and thermal Enthalpies=            -909.294138
 Sum of electronic and thermal Free Energies=         -909.354403

                     E (Thermal)             CV                S
                      KCal/Mol        Cal/Mol-Kelvin    Cal/Mol-Kelvin
 Total                  142.408             57.725            126.839
 Electronic               0.000              0.000              1.377
 Translational            0.889              2.981             42.365
 Rotational               0.889              2.981             32.754
 Vibrational            140.631             51.764             50.342
 Vibration     1          0.593              1.985              6.313
 Vibration     2          0.595              1.980              5.152
 Vibration     3          0.597              1.971              4.298
 Vibration     4          0.602              1.956              3.666
 Vibration     5          0.607              1.938              3.202
 Vibration     6          0.620              1.898              2.618
 Vibration     7          0.626              1.878              2.423
 Vibration     8          0.633              1.855              2.241
 Vibration     9          0.647              1.812              1.968
 Vibration    10          0.653              1.794              1.872
 Vibration    11          0.672              1.734              1.617
 Vibration    12          0.684              1.699              1.495
 Vibration    13          0.696              1.664              1.388
 Vibration    14          0.715              1.608              1.241
 Vibration    15          0.729              1.569              1.154
 Vibration    16          0.751              1.509              1.031
 Vibration    17          0.770              1.460              0.945
 Vibration    18          0.814              1.349              0.780
 Vibration    19          0.859              1.243              0.650
 Vibration    20          0.874              1.208              0.612
 Vibration    21          0.901              1.148              0.552
 Vibration    22          0.913              1.124              0.529
 Vibration    23          0.963              1.022              0.442

                           ! Non-Optimized Parameters !
 Normal termination of Gaussian 16 at Sat Oct 26 22:24:03 2024.
