 Gaussian 16, Revision C.01,
 Gaussian 16:  EM64L-G16RevC.01  3-Jul-2019

 ------------------------------------------------------
 # PBE1PBE/aug-cc-pVDZ opt freq EmpiricalDispersion=GD3
 ------------------------------------------------------

 ----
 blah
 ----
 Symbolic Z-matrix:
 Charge =  0 Multiplicity = 1

 SCF Done:  E(RPBE1PBE) =  -910.202555899     A.U. after   14 cycles
 SCF Done:  E(RPBE1PBE) =  -910.212781144     A.U. after   13 cycles
 SCF Done:  E(RPBE1PBE) =  -910.214639740     A.U. after   14 cycles
 SCF Done:  E(RPBE1PBE) =  -910.215076653     A.U. after   12 cycles
 SCF Done:  E(RPBE1PBE) =  -910.215198899     A.U. after   11 cycles
 SCF Done:  E(RPBE1PBE) =  -910.215242534     A.U. after   10 cycles
 SCF Done:  E(RPBE1PBE) =  -910.215254005     A.U. after   10 cycles
 SCF Done:  E(RPBE1PBE) =  -910.215257977     A.U. after    9 cycles
 SCF Done:  E(RPBE1PBE) =  -910.215259625     A.U. after    8 cycles
 SCF Done:  E(RPBE1PBE) =  -910.215260230     A.U. after    8 cycles
 SCF Done:  E(RPBE1PBE) =  -910.215260530     A.U. after    8 cycles
 SCF Done:  E(RPBE1PBE) =  -910.215260643     A.U. after    7 cycles
 SCF Done:  E(RPBE1PBE) =  -910.215260766     A.U. after    8 cycles
 SCF Done:  E(RPBE1PBE) =  -910.215260831     A.U. after    8 cycles
 Optimization completed.
    -- Stationary point found.
 Normal termination of Gaussian 16 at Thu Oct 17 11:30:30 2024.

 ----------------------------------------------------------------------
 #N Geom=AllCheck Guess=TCheck SCRF=Check GenChk RPBE1PBE/Aug-CC-pVDZ F
 req
 ----------------------------------------------------------------------

 Structure from the checkpoint file:  "/scr/Gau-58912.chk"
 ----
 blah
 ----
 Charge =  0 Multiplicity = 1

                         Standard orientation:
 ---------------------------------------------------------------------
 Center     Atomic      Atomic             Coordinates (Angstroms)
 Number     Number       Type             X           Y           Z
 ---------------------------------------------------------------------
      1          6           0       -2.740813   -0.402525    0.351959
      2          6           0       -1.337169   -0.600518    0.921513
      3          6           0       -0.495108   -0.620972   -0.363617
      4          8           0       -1.174293   -1.720631    1.735353
      5          1           0       -1.073223    0.281167    1.517297
      6          8           0       -1.119374    0.299450   -1.240666
      7          1           0       -0.465084   -1.631706   -0.789538
      8          7           0        0.883165   -0.222227   -0.178359
      9          6           0       -2.480388    0.507462   -0.855462
     10          1           0       -3.425318    0.051748    1.082220
     11          8           0       -3.183077   -1.694499   -0.038152
     12          6           0       -2.720649    1.980980   -0.601941
     13          1           0       -3.128037    0.198557   -1.692129
     14          8           0       -2.007510    2.373306    0.561816
     15          1           0       -3.805495    2.143662   -0.476728
     16          1           0       -2.379990    2.544254   -1.485259
     17          1           0       -4.109803   -1.658841   -0.287715
     18          1           0       -1.636700   -2.454764    1.311224
     19          1           0       -2.134625    3.314871    0.703663
     20          6           0        1.169310    1.054719    0.239372
     21          6           0        2.428387    1.502848    0.426604
     22          6           0        3.550501    0.617924    0.177021
     23          7           0        3.162407   -0.653699   -0.261500
     24          6           0        1.891399   -1.138558   -0.473904
     25          1           0        0.293396    1.685872    0.388905
     26          1           0        2.630338    2.517858    0.754431
     27          1           0        3.909038   -1.308099   -0.460964
     28          8           0        4.731829    0.888331    0.309021
     29          8           0        1.679135   -2.266116   -0.879332
 ---------------------------------------------------------------------

 SCF Done:  E(RPBE1PBE) =  -910.215260831     A.U. after    1 cycles

 The electronic state is 1-A.
 Alpha  occ. eigenvalues --  -19.26432 -19.26341 -19.25728 -19.24053 -19.20460
 Alpha  occ. eigenvalues --  -19.19666 -14.46881 -14.44816 -10.38236 -10.34703
 Alpha  occ. eigenvalues --  -10.33296 -10.31372 -10.31340 -10.31142 -10.30506
 Alpha  occ. eigenvalues --  -10.30261 -10.24697  -1.12815  -1.10983  -1.09633
 Alpha  occ. eigenvalues --   -1.08811  -1.07463  -1.07123  -1.01251  -0.95996
 Alpha  occ. eigenvalues --   -0.83558  -0.82654  -0.80042  -0.73210  -0.71339
 Alpha  occ. eigenvalues --   -0.67494  -0.65149  -0.63881  -0.59858  -0.59196
 Alpha  occ. eigenvalues --   -0.58285  -0.57175  -0.54285  -0.53439  -0.51168
 Alpha  occ. eigenvalues --   -0.50436  -0.49136  -0.48290  -0.47534  -0.46828
 Alpha  occ. eigenvalues --   -0.46408  -0.45423  -0.44408  -0.43311  -0.42511
 Alpha  occ. eigenvalues --   -0.41680  -0.40528  -0.40392  -0.38792  -0.37494
 Alpha  occ. eigenvalues --   -0.35972  -0.33476  -0.32668  -0.31680  -0.30555
 Alpha  occ. eigenvalues --   -0.29873  -0.29340  -0.27621  -0.25474
 Alpha virt. eigenvalues --   -0.03979  -0.02751  -0.01814  -0.00130   0.00686
 Alpha virt. eigenvalues --    0.01133   0.01808   0.02216   0.02668   0.03039
 Alpha virt. eigenvalues --    0.03208   0.04064   0.05050   0.05452   0.06163

 Mulliken charges:
               1
     1  C    1.222312
     2  C    0.917955
     3  C    1.111808
     4  O   -0.648636
     5  H   -0.511737
     6  O   -0.841837
     7  H   -0.681689
     8  N   -0.120029
     9  C    0.778525
    10  H   -0.345264
    11  O   -0.764159
    12  C    0.973018
    13  H   -0.463521
    14  O   -0.575168
    15  H   -0.237301
    16  H   -0.245395
    17  H    0.120583
    18  H    0.113695
    19  H    0.158325
    20  C    0.627902
    21  C    1.301593
    22  C    0.319819
    23  N   -0.158411
    24  C    0.652128
    25  H   -0.683040
    26  H   -0.604801
    27  H   -0.122425
    28  O   -0.665147
    29  O   -0.629101
 Sum of Mulliken charges =  -0.00000

 Dipole moment (field-independent basis, Debye):
    X=             -8.6601    Y=              3.5118    Z=             -0.5290  Tot=              9.3601
 Quadrupole moment (field-independent basis, Debye-Ang):
   XX=            -98.8042   YY=            -93.5422   ZZ=           -104.4957
   XY=             -8.6250   XZ=              1.3491   YZ=              0.5236

  Exact polarizability:     186.966       7.557     145.358       7.010       7.544     104.948
 Approx polarizability:     242.319      17.138     210.742      11.976      17.217     157.520

                      1                      2                      3
                      A                      A                      A
 Frequencies --     47.0249                49.1013                62.2878
 Red. masses --      8.0066                 5.8135                 6.5865
 Frc consts  --      0.0104                 0.0083                 0.0151
 IR Inten    --      0.2639                 0.4488                 1.1346

                      4                      5                      6
                      A                      A                      A
 Frequencies --     99.4162               123.4703               154.0411
 Red. masses --      5.1631                 4.8981                 6.1159
 Frc consts  --      0.0301                 0.0440                 0.0855
 IR Inten    --      0.4601                 1.2721                 1.6839

                      7                      8                      9
                      A                      A                      A
 Frequencies --    162.2078               175.4367               203.3197
 Red. masses --      9.4687                 7.0543                 1.2776
 Frc consts  --      0.1468                 0.1279                 0.0311
 IR Inten    --      4.8201                 4.0336               104.6603

                     10                     11                     12
                      A                      A                      A
 Frequencies --    218.0596               243.5641               256.5436
 Red. masses --      2.6138                 6.4612                 3.9571
 Frc consts  --      0.0732                 0.2258                 0.1534
 IR Inten    --      6.0429                 0.8318                14.9615

                     13                     14                     15
                      A                      A                      A
 Frequencies --    279.4229               326.2364               341.5651
 Red. masses --      1.2059                 4.3830                 3.7535
 Frc consts  --      0.0555                 0.2748                 0.2580
 IR Inten    --    100.1153                 0.9587                19.5301

                     16                     17                     18
                      A                      A                      A
 Frequencies --    354.1145               406.2539               412.5561
 Red. masses --      5.0069                 3.3223                 2.4130
 Frc consts  --      0.3699                 0.3231                 0.2420
 IR Inten    --      9.9191                58.1316                14.5699

                     19                     20                     21
                      A                      A                      A
 Frequencies --    425.3107               463.4109               532.8707
 Red. masses --      2.2420                 3.7438                 5.2663
 Frc consts  --      0.2390                 0.4737                 0.8810
 IR Inten    --     44.7468                 8.9285                26.1329

                     22                     23                     24
                      A                      A                      A
 Frequencies --    548.3738               565.1716               619.3319
 Red. masses --      5.7218                 6.3254                 5.8905
 Frc consts  --      1.0138                 1.1904                 1.3312
 IR Inten    --      4.4567                21.1477                 5.9092

                     25                     26                     27
                      A                      A                      A
 Frequencies --    653.0380               696.2771               705.4910
 Red. masses --      5.6040                 1.1971                 4.3594
 Frc consts  --      1.4081                 0.3419                 1.2784
 IR Inten    --      2.9305                49.0630                34.8711

                     28                     29                     30
                      A                      A                      A
 Frequencies --    729.2499               756.6077               776.8946
 Red. masses --      2.2107                 5.5816                 7.1180
 Frc consts  --      0.6927                 1.8826                 2.5312
 IR Inten    --      6.2118                10.9234                30.6455

                     31                     32                     33
                      A                      A                      A
 Frequencies --    786.4802               829.7131               885.5007
 Red. masses --      8.3800                 2.3180                 3.6476
 Frc consts  --      3.0540                 0.9402                 1.6851
 IR Inten    --      6.9041                50.7747                13.5707

                     34                     35                     36
                      A                      A                      A
 Frequencies --    903.6631               928.9878               944.4206
 Red. masses --      3.9407                 2.7390                 2.2100
 Frc consts  --      1.8960                 1.3927                 1.1614
 IR Inten    --     15.5623                23.1484                12.2138

                     37                     38                     39
                      A                      A                      A
 Frequencies --    990.9079              1005.5640              1013.0709
 Red. masses --      2.6072                 1.3453                 2.1464
 Frc consts  --      1.5083                 0.8015                 1.2979
 IR Inten    --      1.3491                 2.5917                10.1895

                     40                     41                     42
                      A                      A                      A
 Frequencies --   1064.3738              1078.8992              1119.7595
 Red. masses --      2.8282                 3.2510                 2.3426
 Frc consts  --      1.8878                 2.2296                 1.7306
 IR Inten    --     34.5865                52.7626                78.0562

                     43                     44                     45
                      A                      A                      A
 Frequencies --   1122.5162              1132.1860              1158.1948
 Red. masses --      1.9950                 2.3418                 4.5245
 Frc consts  --      1.4811                 1.7686                 3.5759
 IR Inten    --      7.7818                50.4442               221.5767

                     46                     47                     48
                      A                      A                      A
 Frequencies --   1167.5124              1207.1811              1220.9255
 Red. masses --      1.9732                 1.5487                 1.1739
 Frc consts  --      1.5847                 1.3297                 1.0310
 IR Inten    --     77.2867                78.0483                51.8159

                     49                     50                     51
                      A                      A                      A
 Frequencies --   1235.7875              1246.3372              1262.0206
 Red. masses --      1.8498                 2.8908                 1.5549
 Frc consts  --      1.6644                 2.6457                 1.4591
 IR Inten    --      7.4659                 8.6937                82.0680

                     52                     53                     54
                      A                      A                      A
 Frequencies --   1263.5424              1290.0487              1309.3815
 Red. masses --      1.1399                 1.3888                 1.4657
 Frc consts  --      1.0723                 1.3618                 1.4805
 IR Inten    --     19.7292                22.2302               145.0195

                     55                     56                     57
                      A                      A                      A
 Frequencies --   1327.4777              1336.8995              1361.8233
 Red. masses --      1.4264                 1.4730                 1.5891
 Frc consts  --      1.4809                 1.5512                 1.7363
 IR Inten    --     17.5721                 8.4881                23.4518

                     58                     59                     60
                      A                      A                      A
 Frequencies --   1386.2745              1406.1541              1412.9620
 Red. masses --      1.5225                 2.3423                 1.4877
 Frc consts  --      1.7239                 2.7287                 1.7500
 IR Inten    --     13.1833                42.1670                 5.9757

                     61                     62                     63
                      A                      A                      A
 Frequencies --   1422.2789              1428.1889              1442.1157
 Red. masses --      2.2350                 1.6191                 1.7426
 Frc consts  --      2.6638                 1.9458                 2.1352
 IR Inten    --     82.6389                14.0821                 3.8086

                     64                     65                     66
                      A                      A                      A
 Frequencies --   1449.4040              1482.1590              1500.6064
 Red. masses --      1.5334                 1.0875                 3.7321
 Frc consts  --      1.8980                 1.4076                 4.9515
 IR Inten    --     42.2002                 1.8695               141.4320

                     67                     68                     69
                      A                      A                      A
 Frequencies --   1701.5186              1794.7146              1807.0433
 Red. masses --      6.3326                 8.3821                10.8979
 Frc consts  --     10.8020                15.9073                20.9668
 IR Inten    --     90.4874               946.4023               469.5754

                     70                     71                     72
                      A                      A                      A
 Frequencies --   3017.1620              3052.0835              3076.6114
 Red. masses --      1.0603                 1.0851                 1.1037
 Frc consts  --      5.6869                 5.9556                 6.1555
 IR Inten    --     35.3737                67.9089                19.2965

                     73                     74                     75
                      A                      A                      A
 Frequencies --   3085.1041              3116.0280              3132.1621
 Red. masses --      1.0887                 1.0865                 1.0864
 Frc consts  --      6.1052                 6.2155                 6.2796
 IR Inten    --     32.7234                 4.2024                11.7131

                     76                     77                     78
                      A                      A                      A
 Frequencies --   3220.3098              3270.9760              3633.2885
 Red. masses --      1.0939                 1.0963                 1.0777
 Frc consts  --      6.6838                 6.9110                 8.3817
 IR Inten    --     23.6781                 0.6986                74.1233

                     79                     80                     81
                      A                      A                      A
 Frequencies --   3818.6891              3890.9971              3895.3221
 Red. masses --      1.0653                 1.0669                 1.0671
 Frc consts  --      9.1530                 9.5170                 9.5401
 IR Inten    --     63.0958                57.8419                62.2945

 - Thermochemistry -
 -------------------
 Temperature   298.150 Kelvin.  Pressure   1.00000 Atm.
 Atom     1 has atomic number  6 and mass  12.00000

 Molecular mass:   244.06954 amu.
 Principal axes and moments of inertia in atomic units:
                           1         2         3
     Eigenvalues --  2109.672195745.360706867.95792
           X            0.99996  -0.00889   0.00259
           Y            0.00889   0.99996  -0.00198
           Z           -0.00258   0.00200   0.99999
 This molecule is an asymmetric top.
 Rotational symmetry number  1.
 Warning -- assumption of classical behavior for rotation
           may cause significant error
 Rotational temperatures (Kelvin)      0.04106     0.01508     0.01261
 Rotational constants (GHZ):           0.85546     0.31412     0.26278
 Zero-point vibrational energy     598264.3 (Joules/Mol)
                                  142.98860 (Kcal/Mol)
 Warning -- explicit consideration of  24 degrees of freedom as
           vibrations may cause significant error
 Vibrational temperatures:     67.66    70.65    89.62   143.04   177.65
          (Kelvin)            221.63   233.38   252.41   292.53   313.74
                              350.43   369.11   402.03   469.38   491.44
                              509.49   584.51   593.58   611.93   666.74
                              766.68   788.99   813.16   891.08   939.58
                             1001.79  1015.04  1049.23  1088.59  1117.78
                             1131.57  1193.77  1274.04  1300.17  1336.61
                             1358.81  1425.70  1446.78  1457.58  1531.40
                             1552.30  1611.08  1615.05  1628.96  1666.38
                             1679.79  1736.86  1756.64  1778.02  1793.20
                             1815.77  1817.96  1856.09  1883.91  1909.94
                             1923.50  1959.36  1994.54  2023.14  2032.94
                             2046.34  2054.85  2074.88  2085.37  2132.50
                             2159.04  2448.11  2582.19  2599.93  4341.02
                             4391.27  4426.56  4438.78  4483.27  4506.48
                             4633.31  4706.20  5227.49  5494.24  5598.28
                             5604.50

 Zero-point correction=                           0.227867 (Hartree/Particle)
 Thermal correction to Energy=                    0.243421
 Thermal correction to Enthalpy=                  0.244365
 Thermal correction to Gibbs Free Energy=         0.184759
 Sum of electronic and zero-point Energies=           -909.987394
 Sum of electronic and thermal Energies=              -909.971840
 Sum of electronic and thermal Enthalpies=            -909.970896
 Sum of electronic and thermal Free Energies=         -910.030502

                     E (Thermal)             CV                S
                      KCal/Mol        Cal/Mol-Kelvin    Cal/Mol-Kelvin
 Total                  152.749             58.795            125.451
 Electronic               0.000              0.000              0.000
 Translational            0.889              2.981             42.378
 Rotational               0.889              2.981             32.787
 Vibrational            150.971             52.833             50.286
 Vibration     1          0.595              1.979              4.939
 Vibration     2          0.595              1.978              4.853
 Vibration     3          0.597              1.972              4.383
 Vibration     4          0.604              1.950              3.466
 Vibration     5          0.610              1.929              3.045
 Vibration     6          0.620              1.898              2.622
 Vibration     7          0.622              1.889              2.524
 Vibration     8          0.627              1.873              2.376
 Vibration     9          0.639              1.835              2.103
 Vibration    10          0.646              1.814              1.975
 Vibration    11          0.659              1.773              1.777
 Vibration    12          0.666              1.752              1.685
 Vibration    13          0.680              1.712              1.537
 Vibration    14          0.710              1.623              1.279
 Vibration    15          0.721              1.592              1.205
 Vibration    16          0.730              1.567              1.148
 Vibration    17          0.771              1.457              0.940
 Vibration    18          0.776              1.443              0.918
 Vibration    19          0.787              1.415              0.874
 Vibration    20          0.821              1.331              0.756
 Vibration    21          0.888              1.177              0.581
 Vibration    22          0.904              1.143              0.548
 Vibration    23          0.921              1.107              0.514
 Vibration    24          0.979              0.991              0.418

                           ! Non-Optimized Parameters !
 Normal termination of Gaussian 16 at Thu Oct 17 11:46:29 2024.
