 Gaussian 16, Revision C.01,
 Gaussian 16:  EM64L-G16RevC.01  3-Jul-2019

 ------------------------------------------------------
 # PBE1PBE/aug-cc-pVDZ opt freq EmpiricalDispersion=GD3
 ------------------------------------------------------

 ----
 blah
 ----
 Symbolic Z-matrix:
 Charge = -1 Multiplicity = 1

 SCF Done:  E(RPBE1PBE) =  -909.631124488     A.U. after   17 cycles
 SCF Done:  E(RPBE1PBE) =  -909.643104230     A.U. after   13 cycles
 SCF Done:  E(RPBE1PBE) =  -909.644760794     A.U. after   12 cycles
 SCF Done:  E(RPBE1PBE) =  -909.645189674     A.U. after   12 cycles
 SCF Done:  E(RPBE1PBE) =  -909.645298265     A.U. after   12 cycles
 SCF Done:  E(RPBE1PBE) =  -909.645595525     A.U. after   10 cycles
 SCF Done:  E(RPBE1PBE) =  -909.645756319     A.U. after   11 cycles
 SCF Done:  E(RPBE1PBE) =  -909.645875229     A.U. after   11 cycles
 SCF Done:  E(RPBE1PBE) =  -909.646008804     A.U. after   11 cycles
 SCF Done:  E(RPBE1PBE) =  -909.646218680     A.U. after   12 cycles
 SCF Done:  E(RPBE1PBE) =  -909.660795542     A.U. after   10 cycles
 SCF Done:  E(RPBE1PBE) =  -909.660797019     A.U. after   10 cycles
 SCF Done:  E(RPBE1PBE) =  -909.660798302     A.U. after    9 cycles
 SCF Done:  E(RPBE1PBE) =  -909.660798919     A.U. after    9 cycles
 SCF Done:  E(RPBE1PBE) =  -909.660799014     A.U. after    8 cycles
 SCF Done:  E(RPBE1PBE) =  -909.660799062     A.U. after    8 cycles
 SCF Done:  E(RPBE1PBE) =  -909.660799091     A.U. after    8 cycles
 SCF Done:  E(RPBE1PBE) =  -909.660799126     A.U. after    8 cycles
 SCF Done:  E(RPBE1PBE) =  -909.660799153     A.U. after    8 cycles
 Optimization completed.
    -- Stationary point found.
 Normal termination of Gaussian 16 at Tue Oct 22 00:58:13 2024.

 ----------------------------------------------------------------------
 #N Geom=AllCheck Guess=TCheck SCRF=Check GenChk RPBE1PBE/Aug-CC-pVDZ F
 req
 ----------------------------------------------------------------------

 Structure from the checkpoint file:  "/scr/Gau-26412.chk"
 ----
 blah
 ----
 Charge = -1 Multiplicity = 1

                         Standard orientation:
 ---------------------------------------------------------------------
 Center     Atomic      Atomic             Coordinates (Angstroms)
 Number     Number       Type             X           Y           Z
 ---------------------------------------------------------------------
      1          6           0       -2.684183   -0.568666    0.225232
      2          6           0       -1.242187   -0.876763    0.636463
      3          6           0       -0.449497   -0.381923   -0.585394
      4          8           0       -1.029286   -2.198159    0.984801
      5          1           0       -0.995110   -0.182765    1.465984
      6          8           0       -1.146216    0.781947   -1.009252
      7          1           0       -0.456430   -1.156094   -1.368223
      8          7           0        0.932107   -0.021500   -0.315339
      9          6           0       -2.519856    0.702717   -0.625159
     10          1           0       -3.318686   -0.386366    1.107201
     11          8           0       -3.189855   -1.647799   -0.543311
     12          6           0       -2.888178    2.008738    0.055492
     13          1           0       -3.136037    0.601020   -1.536876
     14          8           0       -2.167489    2.234627    1.247570
     15          1           0       -3.954110    1.991423    0.326206
     16          1           0       -2.732799    2.833928   -0.662842
     17          1           0       -4.093291   -1.434624   -0.791551
     18          1           0       -0.109313   -2.398031    0.653718
     19          1           0       -1.233222    2.110468    1.038931
     20          6           0        1.375252    1.272654   -0.304535
     21          6           0        2.681028    1.549234   -0.102843
     22          6           0        3.637766    0.448667    0.067404
     23          7           0        3.143366   -0.831645    0.062247
     24          6           0        1.852405   -1.085634   -0.097744
     25          1           0        0.625504    2.037528   -0.494442
     26          1           0        3.044200    2.575169   -0.098981
     27          8           0        4.846544    0.688299    0.208168
     28          8           0        1.343263   -2.238137   -0.073099
 ---------------------------------------------------------------------

 SCF Done:  E(RPBE1PBE) =  -909.660799153     A.U. after    1 cycles

 The electronic state is 1-A.
 Alpha  occ. eigenvalues --  -19.15719 -19.15287 -19.14692 -19.08894 -19.04459
 Alpha  occ. eigenvalues --  -19.02147 -14.32155 -14.21657 -10.21841 -10.20939
 Alpha  occ. eigenvalues --  -10.20904 -10.20833 -10.20003 -10.18044 -10.16901
 Alpha  occ. eigenvalues --  -10.16070 -10.09888  -1.01712  -0.98308  -0.97648
 Alpha  occ. eigenvalues --   -0.94339  -0.92451  -0.88894  -0.85335  -0.76382
 Alpha  occ. eigenvalues --   -0.71612  -0.69363  -0.66080  -0.60448  -0.55046
 Alpha  occ. eigenvalues --   -0.53158  -0.52085  -0.48636  -0.47208  -0.46515
 Alpha  occ. eigenvalues --   -0.43302  -0.42769  -0.41542  -0.40020  -0.38689
 Alpha  occ. eigenvalues --   -0.37485  -0.35789  -0.34523  -0.33945  -0.32466
 Alpha  occ. eigenvalues --   -0.31957  -0.30770  -0.30396  -0.28914  -0.28038
 Alpha  occ. eigenvalues --   -0.27533  -0.26641  -0.24587  -0.24225  -0.23006
 Alpha  occ. eigenvalues --   -0.21364  -0.20385  -0.19290  -0.16636  -0.14810
 Alpha  occ. eigenvalues --   -0.12790  -0.10983  -0.10199  -0.09861
 Alpha virt. eigenvalues --    0.05756   0.07684   0.08399   0.09110   0.10871
 Alpha virt. eigenvalues --    0.11015   0.11276   0.11742   0.12177   0.12589
 Alpha virt. eigenvalues --    0.13737   0.14192   0.14808   0.15419   0.15793

 Mulliken charges:
               1
     1  C    1.221199
     2  C    0.883547
     3  C    0.644566
     4  O   -0.705902
     5  H   -0.391201
     6  O   -0.768774
     7  H   -0.607494
     8  N    0.040106
     9  C    0.909601
    10  H   -0.353737
    11  O   -0.702363
    12  C    1.017438
    13  H   -0.530260
    14  O   -0.517504
    15  H   -0.287149
    16  H   -0.267195
    17  H    0.093389
    18  H    0.221557
    19  H    0.166345
    20  C    0.676864
    21  C    0.873206
    22  C    0.464570
    23  N   -0.509898
    24  C    0.467514
    25  H   -0.787245
    26  H   -0.605870
    27  O   -0.793170
    28  O   -0.852139
 Sum of Mulliken charges =  -1.00000

 Dipole moment (field-independent basis, Debye):
    X=            -14.4185    Y=              5.3181    Z=             -2.3125  Tot=             15.5410
 Quadrupole moment (field-independent basis, Debye-Ang):
   XX=           -162.2001   YY=           -124.9494   ZZ=           -106.1683
   XY=              0.1339   XZ=              2.8930   YZ=             -0.4438

  Exact polarizability:     206.618      10.497     156.430       7.182      -0.381     108.216
 Approx polarizability:     270.164      23.222     226.152      12.549       1.489     164.196

                      1                      2                      3
                      A                      A                      A
 Frequencies --     17.7091                45.4648                67.8690
 Red. masses --      6.7729                 8.1241                 5.6531
 Frc consts  --      0.0013                 0.0099                 0.0153
 IR Inten    --      1.1881                 0.1160                 3.5029

                      4                      5                      6
                      A                      A                      A
 Frequencies --     77.1263               112.6562               169.9470
 Red. masses --      6.6300                 4.4439                 6.0846
 Frc consts  --      0.0232                 0.0332                 0.1035
 IR Inten    --      2.7990                 2.1893                 1.0864

                      7                      8                      9
                      A                      A                      A
 Frequencies --    173.9318               207.4086               228.0828
 Red. masses --      7.0030                 7.9014                 2.0176
 Frc consts  --      0.1248                 0.2003                 0.0618
 IR Inten    --      0.3080                 1.2524                52.2719

                     10                     11                     12
                      A                      A                      A
 Frequencies --    242.8960               257.1265               293.3065
 Red. masses --      2.2346                 4.1544                 6.7514
 Frc consts  --      0.0777                 0.1618                 0.3422
 IR Inten    --     37.2752                13.4741                 4.8389

                     13                     14                     15
                      A                      A                      A
 Frequencies --    303.4095               329.6134               364.7617
 Red. masses --      4.8377                 3.4463                 6.3459
 Frc consts  --      0.2624                 0.2206                 0.4975
 IR Inten    --     43.1768                10.2811                 6.0214

                     16                     17                     18
                      A                      A                      A
 Frequencies --    411.2134               429.0280               449.6994
 Red. masses --      2.7118                 2.7051                 7.4243
 Frc consts  --      0.2702                 0.2934                 0.8846
 IR Inten    --     22.0752                33.7909                23.4776

                     19                     20                     21
                      A                      A                      A
 Frequencies --    458.2848               533.2952               554.7232
 Red. masses --      1.4573                 6.2743                 6.3287
 Frc consts  --      0.1803                 1.0514                 1.1474
 IR Inten    --     60.6974                16.0349                 3.4024

                     22                     23                     24
                      A                      A                      A
 Frequencies --    579.3210               628.2770               659.0219
 Red. masses --      9.7657                 6.1020                 5.6436
 Frc consts  --      1.9310                 1.4191                 1.4441
 IR Inten    --     12.0533                17.4850                 8.5346

                     25                     26                     27
                      A                      A                      A
 Frequencies --    713.7135               721.2606               742.5045
 Red. masses --      4.2228                 1.7795                 5.8045
 Frc consts  --      1.2674                 0.5454                 1.8854
 IR Inten    --      3.3691                17.7774                13.6433

                     28                     29                     30
                      A                      A                      A
 Frequencies --    782.7167               791.3880               832.5524
 Red. masses --      7.2854                 7.9431                 3.5734
 Frc consts  --      2.6297                 2.9310                 1.4594
 IR Inten    --      3.4194                14.3963                36.7914

                     31                     32                     33
                      A                      A                      A
 Frequencies --    835.2381               880.8082               902.4172
 Red. masses --      1.1611                 3.5171                 3.9125
 Frc consts  --      0.4772                 1.6076                 1.8772
 IR Inten    --     63.2881                 4.4492                 5.6783

                     34                     35                     36
                      A                      A                      A
 Frequencies --    918.2558               934.8489               961.8161
 Red. masses --      2.2385                 2.4260                 1.2712
 Frc consts  --      1.1121                 1.2492                 0.6929
 IR Inten    --     14.4842                 7.9295                 1.0874

                     37                     38                     39
                      A                      A                      A
 Frequencies --    994.9534              1024.7670              1053.7307
 Red. masses --      4.1450                 2.7749                 2.7022
 Frc consts  --      2.4176                 1.7169                 1.7677
 IR Inten    --     22.9699                14.4306                33.8554

                     40                     41                     42
                      A                      A                      A
 Frequencies --   1083.3269              1104.4635              1115.4614
 Red. masses --      3.1982                 1.6927                 1.8509
 Frc consts  --      2.2114                 1.2166                 1.3569
 IR Inten    --     20.2947                16.0156               102.8362

                     43                     44                     45
                      A                      A                      A
 Frequencies --   1133.4057              1161.9658              1203.0933
 Red. masses --      3.9404                 4.1142                 1.7290
 Frc consts  --      2.9824                 3.2728                 1.4745
 IR Inten    --    143.1417               172.3142                12.4620

                     46                     47                     48
                      A                      A                      A
 Frequencies --   1212.4544              1215.9953              1225.1159
 Red. masses --      1.9729                 1.9575                 1.3016
 Frc consts  --      1.7088                 1.7054                 1.1510
 IR Inten    --     58.2670                 5.6760                 9.9796

                     49                     50                     51
                      A                      A                      A
 Frequencies --   1275.8291              1289.4329              1294.4438
 Red. masses --      1.3323                 1.3957                 1.4817
 Frc consts  --      1.2777                 1.3672                 1.4628
 IR Inten    --      9.8061                45.4691                89.8529

                     52                     53                     54
                      A                      A                      A
 Frequencies --   1305.4406              1327.9087              1340.3308
 Red. masses --      1.4853                 2.6646                 1.6424
 Frc consts  --      1.4914                 2.7684                 1.7384
 IR Inten    --     12.2322               185.7137                55.7313

                     55                     56                     57
                      A                      A                      A
 Frequencies --   1348.3380              1355.6701              1365.7108
 Red. masses --      1.6854                 4.9304                 1.3044
 Frc consts  --      1.8053                 5.3388                 1.4335
 IR Inten    --     42.3427                17.3103                 5.5924

                     58                     59                     60
                      A                      A                      A
 Frequencies --   1390.9052              1398.4113              1414.2032
 Red. masses --      1.6786                 1.4477                 1.3877
 Frc consts  --      1.9134                 1.6680                 1.6352
 IR Inten    --     23.8530                51.1921                37.9761

                     61                     62                     63
                      A                      A                      A
 Frequencies --   1431.9167              1473.6045              1487.5857
 Red. masses --      1.6304                 1.0885                 4.3274
 Frc consts  --      1.9696                 1.3926                 5.6421
 IR Inten    --     15.8371                 2.7714                22.4903

                     64                     65                     66
                      A                      A                      A
 Frequencies --   1524.3186              1616.9832              1701.3853
 Red. masses --      1.4823                 5.1313                10.4025
 Frc consts  --      2.0293                 7.9047                17.7416
 IR Inten    --    538.6495               522.7782               219.2914

                     67                     68                     69
                      A                      A                      A
 Frequencies --   1715.9719              2961.5172              3002.2939
 Red. masses --      7.4693                 1.0810                 1.0737
 Frc consts  --     12.9584                 5.5860                 5.7024
 IR Inten    --    840.3006                47.2035                22.5907

                     70                     71                     72
                      A                      A                      A
 Frequencies --   3018.4049              3049.2078              3064.2840
 Red. masses --      1.0784                 1.0865                 1.0859
 Frc consts  --      5.7887                 5.9517                 6.0078
 IR Inten    --    133.1761                43.0636                29.3860

                     73                     74                     75
                      A                      A                      A
 Frequencies --   3094.7180              3165.6963              3221.3902
 Red. masses --      1.0965                 1.0727                 1.0863
 Frc consts  --      6.1875                 6.3340                 6.6416
 IR Inten    --     42.2057              1078.1228                 2.4922

                     76                     77                     78
                      A                      A                      A
 Frequencies --   3242.8869              3818.4294              3879.6537
 Red. masses --      1.0991                 1.0658                 1.0666
 Frc consts  --      6.8099                 9.1555                 9.4585
 IR Inten    --     19.7917                78.3976                19.9058

 - Thermochemistry -
 -------------------
 Temperature   298.150 Kelvin.  Pressure   1.00000 Atm.
 Atom     1 has atomic number  6 and mass  12.00000

 Molecular mass:   243.06171 amu.
 Principal axes and moments of inertia in atomic units:
                           1         2         3
     Eigenvalues --  2031.109115664.237647052.67061
           X            0.99999  -0.00320   0.00151
           Y            0.00320   0.99999  -0.00198
           Z           -0.00150   0.00199   1.00000
 This molecule is an asymmetric top.
 Rotational symmetry number  1.
 Warning -- assumption of classical behavior for rotation
           may cause significant error
 Rotational temperatures (Kelvin)      0.04264     0.01529     0.01228
 Rotational constants (GHZ):           0.88855     0.31862     0.25589
 Zero-point vibrational energy     560553.9 (Joules/Mol)
                                  133.97560 (Kcal/Mol)
 Warning -- explicit consideration of  22 degrees of freedom as
           vibrations may cause significant error
 Vibrational temperatures:     25.48    65.41    97.65   110.97   162.09
          (Kelvin)            244.52   250.25   298.41   328.16   349.47
                              369.95   422.00   436.54   474.24   524.81
                              591.64   617.28   647.02   659.37   767.29
                              798.12   833.51   903.95   948.19  1026.87
                             1037.73  1068.30  1126.15  1138.63  1197.86
                             1201.72  1267.29  1298.38  1321.17  1345.04
                             1383.84  1431.52  1474.41  1516.08  1558.67
                             1589.08  1604.90  1630.72  1671.81  1730.98
                             1744.45  1749.55  1762.67  1835.63  1855.21
                             1862.42  1878.24  1910.56  1928.44  1939.96
                             1950.51  1964.95  2001.20  2012.00  2034.72
                             2060.21  2120.19  2140.30  2193.15  2326.48
                             2447.91  2468.90  4260.96  4319.63  4342.81
                             4387.13  4408.82  4452.61  4554.73  4634.86
                             4665.79  5493.87  5581.96

 Zero-point correction=                           0.213504 (Hartree/Particle)
 Thermal correction to Energy=                    0.228423
 Thermal correction to Enthalpy=                  0.229367
 Thermal correction to Gibbs Free Energy=         0.170013
 Sum of electronic and zero-point Energies=           -909.447295
 Sum of electronic and thermal Energies=              -909.432377
 Sum of electronic and thermal Enthalpies=            -909.431432
 Sum of electronic and thermal Free Energies=         -909.490786

                     E (Thermal)             CV                S
                      KCal/Mol        Cal/Mol-Kelvin    Cal/Mol-Kelvin
 Total                  143.337             56.461            124.920
 Electronic               0.000              0.000              0.000
 Translational            0.889              2.981             42.365
 Rotational               0.889              2.981             32.762
 Vibrational            141.560             50.499             49.793
 Vibration     1          0.593              1.986              6.876
 Vibration     2          0.595              1.979              5.006
 Vibration     3          0.598              1.970              4.214
 Vibration     4          0.599              1.964              3.963
 Vibration     5          0.607              1.939              3.223
 Vibration     6          0.625              1.879              2.436
 Vibration     7          0.627              1.875              2.393
 Vibration     8          0.641              1.829              2.066
 Vibration     9          0.651              1.798              1.894
 Vibration    10          0.659              1.775              1.782
 Vibration    11          0.667              1.751              1.681
 Vibration    12          0.688              1.686              1.455
 Vibration    13          0.695              1.667              1.398
 Vibration    14          0.712              1.616              1.262
 Vibration    15          0.738              1.545              1.102
 Vibration    16          0.775              1.446              0.922
 Vibration    17          0.790              1.407              0.862
 Vibration    18          0.809              1.362              0.797
 Vibration    19          0.816              1.343              0.771
 Vibration    20          0.888              1.176              0.580
 Vibration    21          0.910              1.129              0.534
 Vibration    22          0.936              1.076              0.487

 Optimization completed.
    -- Stationary point found.
 Normal termination of Gaussian 16 at Tue Oct 22 01:13:10 2024.
