 Gaussian 16, Revision C.01,
 Gaussian 16:  EM64L-G16RevC.01  3-Jul-2019

 ------------------------------------------------------
 # PBE1PBE/aug-cc-pVDZ opt freq EmpiricalDispersion=GD3
 ------------------------------------------------------

 ----
 blah
 ----
 Symbolic Z-matrix:
 Charge = -1 Multiplicity = 1

 SCF Done:  E(RPBE1PBE) =  -909.665307669     A.U. after   17 cycles
 SCF Done:  E(RPBE1PBE) =  -909.676909937     A.U. after   13 cycles
 SCF Done:  E(RPBE1PBE) =  -909.672530327     A.U. after   15 cycles
 SCF Done:  E(RPBE1PBE) =  -909.677560059     A.U. after   13 cycles
 SCF Done:  E(RPBE1PBE) =  -909.678927149     A.U. after   13 cycles
 SCF Done:  E(RPBE1PBE) =  -909.679510527     A.U. after   12 cycles
 SCF Done:  E(RPBE1PBE) =  -909.678674970     A.U. after   13 cycles
 SCF Done:  E(RPBE1PBE) =  -909.680062888     A.U. after   12 cycles
 SCF Done:  E(RPBE1PBE) =  -909.680050368     A.U. after   12 cycles
 SCF Done:  E(RPBE1PBE) =  -909.680238668     A.U. after   12 cycles
 SCF Done:  E(RPBE1PBE) =  -909.680263966     A.U. after    8 cycles
 SCF Done:  E(RPBE1PBE) =  -909.680264821     A.U. after    9 cycles
 SCF Done:  E(RPBE1PBE) =  -909.680265268     A.U. after    8 cycles
 SCF Done:  E(RPBE1PBE) =  -909.680265528     A.U. after    8 cycles
 SCF Done:  E(RPBE1PBE) =  -909.680265689     A.U. after    8 cycles
 SCF Done:  E(RPBE1PBE) =  -909.680265838     A.U. after    8 cycles
 SCF Done:  E(RPBE1PBE) =  -909.680265922     A.U. after    8 cycles
 SCF Done:  E(RPBE1PBE) =  -909.680266000     A.U. after    8 cycles
 SCF Done:  E(RPBE1PBE) =  -909.680266056     A.U. after    7 cycles
 Optimization completed.
    -- Stationary point found.
 Normal termination of Gaussian 16 at Sun Oct 27 03:38:32 2024.

 ----------------------------------------------------------------------
 #N Geom=AllCheck Guess=TCheck SCRF=Check GenChk RPBE1PBE/Aug-CC-pVDZ F
 req
 ----------------------------------------------------------------------

 Structure from the checkpoint file:  "/scr/Gau-38152.chk"
 ----
 blah
 ----
 Charge = -1 Multiplicity = 1

                         Standard orientation:
 ---------------------------------------------------------------------
 Center     Atomic      Atomic             Coordinates (Angstroms)
 Number     Number       Type             X           Y           Z
 ---------------------------------------------------------------------
      1          6           0        2.311972   -0.196761   -0.627620
      2          6           0        1.221246   -1.282311   -0.580321
      3          6           0        0.380621   -0.952677    0.661263
      4          8           0        1.796793   -2.578778   -0.388820
      5          1           0        0.606195   -1.271225   -1.489001
      6          8           0        1.061538    0.093035    1.367657
      7          1           0        0.377766   -1.859128    1.292068
      8          6           0       -1.027004   -0.545804    0.384903
      9          6           0        2.321616    0.378717    0.793772
     10          1           0        2.025409    0.576752   -1.344274
     11          8           0        3.577687   -0.686969   -1.041351
     12          6           0        2.554504    1.878484    0.862582
     13          1           0        3.125116   -0.126683    1.373306
     14          8           0        1.747483    2.626765   -0.002044
     15          1           0        3.610461    2.073007    0.604683
     16          1           0        2.406940    2.186353    1.916157
     17          1           0        3.832218   -1.356916   -0.396002
     18          1           0        2.289316   -2.777125   -1.192334
     19          1           0        0.921156    2.132255   -0.216099
     20          6           0       -2.077894   -1.198537    0.930518
     21          7           0       -3.344875   -0.810557    0.636950
     22          6           0       -3.632457    0.260977   -0.247464
     23          7           0       -2.593501    0.930001   -0.785952
     24          6           0       -1.315923    0.593383   -0.507174
     25          1           0       -1.961625   -2.045563    1.610112
     26          1           0       -4.149745   -1.281326    1.020122
     27          8           0       -4.831434    0.491834   -0.447997
     28          8           0       -0.343901    1.216697   -1.007255
 ---------------------------------------------------------------------

 SCF Done:  E(RPBE1PBE) =  -909.680266056     A.U. after    1 cycles

 The electronic state is 1-A.
 Alpha  occ. eigenvalues --  -19.14214 -19.13883 -19.11804 -19.08063 -19.03763
 Alpha  occ. eigenvalues --  -19.03434 -14.31471 -14.22106 -10.20621 -10.18125
 Alpha  occ. eigenvalues --  -10.17996 -10.17815 -10.17401 -10.17291 -10.17021
 Alpha  occ. eigenvalues --  -10.16045 -10.10998  -0.98912  -0.96221  -0.95449
 Alpha  occ. eigenvalues --   -0.93265  -0.91510  -0.89941  -0.84740  -0.75996
 Alpha  occ. eigenvalues --   -0.71105  -0.68374  -0.65049  -0.58123  -0.53838
 Alpha  occ. eigenvalues --   -0.51631  -0.51038  -0.49950  -0.45536  -0.45276
 Alpha  occ. eigenvalues --   -0.42551  -0.40903  -0.40013  -0.38993  -0.37494
 Alpha  occ. eigenvalues --   -0.35205  -0.34585  -0.33217  -0.32947  -0.31901
 Alpha  occ. eigenvalues --   -0.31140  -0.30165  -0.29836  -0.28829  -0.27690
 Alpha  occ. eigenvalues --   -0.25490  -0.24813  -0.23295  -0.22545  -0.22337
 Alpha  occ. eigenvalues --   -0.21207  -0.18517  -0.16824  -0.15274  -0.14546
 Alpha  occ. eigenvalues --   -0.12746  -0.11547  -0.11410  -0.10565
 Alpha virt. eigenvalues --    0.07081   0.08163   0.08765   0.10341   0.10574
 Alpha virt. eigenvalues --    0.10956   0.11621   0.12246   0.12865   0.13309
 Alpha virt. eigenvalues --    0.13982   0.15019   0.15178   0.15396   0.15703

 Mulliken charges:
               1
     1  C    0.930696
     2  C    0.799677
     3  C    1.127348
     4  O   -0.701569
     5  H   -0.439428
     6  O   -0.900347
     7  H   -0.568105
     8  C    0.930491
     9  C    0.636560
    10  H   -0.527640
    11  O   -0.593298
    12  C    1.157895
    13  H   -0.556515
    14  O   -0.555405
    15  H   -0.256650
    16  H   -0.245836
    17  H    0.053724
    18  H    0.093520
    19  H    0.247516
    20  C    1.163192
    21  N   -0.562717
    22  C    0.700360
    23  N   -0.627929
    24  C    0.163671
    25  H   -0.709801
    26  H   -0.122472
    27  O   -0.738558
    28  O   -0.898378
 Sum of Mulliken charges =  -1.00000

 Dipole moment (field-independent basis, Debye):
    X=              7.1679    Y=             -7.9389    Z=              3.9749  Tot=             11.4107
 Quadrupole moment (field-independent basis, Debye-Ang):
   XX=           -154.4187   YY=           -116.8263   ZZ=           -106.4832
   XY=              8.8770   XZ=            -10.0603   YZ=              5.4461

  Exact polarizability:     213.411       4.736     141.766      -1.148     -10.965     120.996
 Approx polarizability:     278.243      12.067     201.661      -8.908     -25.312     185.148

                      1                      2                      3
                      A                      A                      A
 Frequencies --     48.4752                58.3703                67.5759
 Red. masses --      8.1505                 4.9958                 6.6727
 Frc consts  --      0.0113                 0.0100                 0.0180
 IR Inten    --      0.2601                 0.4672                 4.7093

                      4                      5                      6
                      A                      A                      A
 Frequencies --    114.7564               119.1442               144.3373
 Red. masses --      4.5728                 7.2621                 5.7144
 Frc consts  --      0.0355                 0.0607                 0.0701
 IR Inten    --     10.7293                16.6487                 3.5897

                      7                      8                      9
                      A                      A                      A
 Frequencies --    176.9100               189.0243               211.5846
 Red. masses --      5.3885                 1.4385                 7.2403
 Frc consts  --      0.0994                 0.0303                 0.1910
 IR Inten    --      7.8423               150.1127                18.7026

                     10                     11                     12
                      A                      A                      A
 Frequencies --    235.8927               269.1376               275.4789
 Red. masses --      4.0407                 7.2677                 4.2523
 Frc consts  --      0.1325                 0.3102                 0.1901
 IR Inten    --     12.0612                 2.3809                 6.3602

                     13                     14                     15
                      A                      A                      A
 Frequencies --    309.2494               340.5915               359.6431
 Red. masses --      5.1961                 6.1949                 4.9089
 Frc consts  --      0.2928                 0.4234                 0.3741
 IR Inten    --      7.0764                17.5364                 8.9447

                     16                     17                     18
                      A                      A                      A
 Frequencies --    405.1706               428.1893               468.1879
 Red. masses --      3.2796                10.3030                 4.4848
 Frc consts  --      0.3172                 1.1130                 0.5792
 IR Inten    --     14.4384                 9.7073                 2.7212

                     19                     20                     21
                      A                      A                      A
 Frequencies --    546.2483               558.2980               567.0132
 Red. masses --      2.7103                 1.3776                 8.6933
 Frc consts  --      0.4765                 0.2530                 1.6467
 IR Inten    --      5.7957                 2.9985                15.2459

                     22                     23                     24
                      A                      A                      A
 Frequencies --    580.8418               590.1803               601.8105
 Red. masses --      1.2721                 4.5926                 6.3772
 Frc consts  --      0.2529                 0.9425                 1.3608
 IR Inten    --     55.9996                35.5391                17.5388

                     25                     26                     27
                      A                      A                      A
 Frequencies --    651.4104               714.3383               732.8633
 Red. masses --      5.2039                 5.3501                 1.0801
 Frc consts  --      1.3010                 1.6085                 0.3418
 IR Inten    --      3.7006                 3.2053                81.3873

                     28                     29                     30
                      A                      A                      A
 Frequencies --    750.1538               774.5418               791.8120
 Red. masses --      5.9633                 6.1366                12.2070
 Frc consts  --      1.9772                 2.1690                 4.5093
 IR Inten    --      3.9194                 4.1990                10.9784

                     31                     32                     33
                      A                      A                      A
 Frequencies --    826.6573               857.1352               879.0592
 Red. masses --      8.0966                 4.6237                 3.8832
 Frc consts  --      3.2599                 2.0014                 1.7680
 IR Inten    --     11.7058                 7.8216                37.0977

                     34                     35                     36
                      A                      A                      A
 Frequencies --    901.2487               919.1859               964.9094
 Red. masses --      1.9963                 1.6362                 3.5460
 Frc consts  --      0.9553                 0.8145                 1.9452
 IR Inten    --     24.8304                12.5194                 9.5443

                     37                     38                     39
                      A                      A                      A
 Frequencies --    973.8177              1027.0699              1052.1795
 Red. masses --      3.8963                 2.5863                 3.2592
 Frc consts  --      2.1770                 1.6074                 2.1259
 IR Inten    --     14.5748                82.9185                39.9623

                     40                     41                     42
                      A                      A                      A
 Frequencies --   1081.3766              1100.8839              1126.1322
 Red. masses --      2.4478                 3.7398                 2.8366
 Frc consts  --      1.6865                 2.6704                 2.1195
 IR Inten    --     13.0991                61.1934               165.1353

                     43                     44                     45
                      A                      A                      A
 Frequencies --   1155.6316              1167.1648              1179.4162
 Red. masses --      3.0560                 1.5440                 3.0408
 Frc consts  --      2.4046                 1.2393                 2.4921
 IR Inten    --    103.7740                46.2360                90.8070

                     46                     47                     48
                      A                      A                      A
 Frequencies --   1218.9466              1238.9518              1247.1630
 Red. masses --      1.2003                 1.4124                 1.7471
 Frc consts  --      1.0508                 1.2774                 1.6011
 IR Inten    --     26.2419                31.6209                15.4146

                     49                     50                     51
                      A                      A                      A
 Frequencies --   1273.1128              1280.6894              1296.5251
 Red. masses --      1.1356                 1.5051                 1.2755
 Frc consts  --      1.0844                 1.4545                 1.2633
 IR Inten    --      6.5560                 4.8501                16.4979

                     52                     53                     54
                      A                      A                      A
 Frequencies --   1304.8442              1321.2771              1336.8746
 Red. masses --      1.9157                 1.3973                 5.6815
 Frc consts  --      1.9217                 1.4373                 5.9827
 IR Inten    --     75.3806                38.4651                36.4227

                     55                     56                     57
                      A                      A                      A
 Frequencies --   1343.6332              1351.8082              1368.8987
 Red. masses --      1.4747                 1.4701                 2.0108
 Frc consts  --      1.5686                 1.5829                 2.2201
 IR Inten    --      9.8524                 6.8313                27.9406

                     58                     59                     60
                      A                      A                      A
 Frequencies --   1387.2642              1394.4172              1421.2103
 Red. masses --      2.2216                 1.4685                 1.7780
 Frc consts  --      2.5191                 1.6823                 2.1159
 IR Inten    --     65.0017                13.8072                24.9044

                     61                     62                     63
                      A                      A                      A
 Frequencies --   1435.8140              1465.3672              1475.8737
 Red. masses --      1.3595                 1.2425                 1.0990
 Frc consts  --      1.6513                 1.5720                 1.4105
 IR Inten    --     12.2732                71.5148                 2.4679

                     64                     65                     66
                      A                      A                      A
 Frequencies --   1509.2708              1596.6851              1725.1682
 Red. masses --      4.8987                 8.9312                 7.0803
 Frc consts  --      6.5745                13.4153                12.4155
 IR Inten    --     70.3021              1074.7572               112.6499

                     67                     68                     69
                      A                      A                      A
 Frequencies --   1742.2629              2924.8810              2979.3816
 Red. masses --      9.0136                 1.0807                 1.0673
 Frc consts  --     16.1204                 5.4472                 5.5819
 IR Inten    --   1056.2098               100.7614               164.5447

                     70                     71                     72
                      A                      A                      A
 Frequencies --   3013.3190              3034.8325              3099.3323
 Red. masses --      1.0846                 1.0958                 1.0881
 Frc consts  --      5.8024                 5.9462                 6.1582
 IR Inten    --     51.1903                87.1256                18.8433

                     73                     74                     75
                      A                      A                      A
 Frequencies --   3170.6179              3180.3225              3386.4823
 Red. masses --      1.0878                 1.0934                 1.0728
 Frc consts  --      6.4428                 6.5159                 7.2486
 IR Inten    --      1.1501                23.4500              1046.6669

                     76                     77                     78
                      A                      A                      A
 Frequencies --   3673.6578              3824.9651              3849.9301
 Red. masses --      1.0785                 1.0652                 1.0657
 Frc consts  --      8.5758                 9.1819                 9.3069
 IR Inten    --     43.3026                15.7775                23.0454

 - Thermochemistry -
 -------------------
 Temperature   298.150 Kelvin.  Pressure   1.00000 Atm.
 Atom     1 has atomic number  6 and mass  12.00000

 Molecular mass:   243.06171 amu.
 Principal axes and moments of inertia in atomic units:
                           1         2         3
     Eigenvalues --  1984.449975862.435736797.89040
           X            0.99994   0.01059  -0.00265
           Y           -0.01056   0.99989   0.01022
           Z            0.00276  -0.01019   0.99994
 This molecule is an asymmetric top.
 Rotational symmetry number  1.
 Warning -- assumption of classical behavior for rotation
           may cause significant error
 Rotational temperatures (Kelvin)      0.04365     0.01477     0.01274
 Rotational constants (GHZ):           0.90944     0.30785     0.26549
 Zero-point vibrational energy     563243.0 (Joules/Mol)
                                  134.61831 (Kcal/Mol)
 Warning -- explicit consideration of  24 degrees of freedom as
           vibrations may cause significant error
 Vibrational temperatures:     69.75    83.98    97.23   165.11   171.42
          (Kelvin)            207.67   254.53   271.96   304.42   339.40
                              387.23   396.35   444.94   490.04   517.45
                              582.95   616.07   673.62   785.93   803.27
                              815.81   835.70   849.14   865.87   937.23
                             1027.77  1054.43  1079.30  1114.39  1139.24
                             1189.38  1233.23  1264.77  1296.70  1322.50
                             1388.29  1401.11  1477.72  1513.85  1555.86
                             1583.93  1620.25  1662.70  1679.29  1696.92
                             1753.79  1782.58  1794.39  1831.73  1842.63
                             1865.41  1877.38  1901.02  1923.46  1933.19
                             1944.95  1969.54  1995.96  2006.26  2044.80
                             2065.82  2108.34  2123.45  2171.50  2297.27
                             2482.13  2506.73  4208.25  4286.67  4335.49
                             4366.45  4459.25  4561.81  4575.77  4872.39
                             5285.57  5503.27  5539.19

 Zero-point correction=                           0.214528 (Hartree/Particle)
 Thermal correction to Energy=                    0.229394
 Thermal correction to Enthalpy=                  0.230338
 Thermal correction to Gibbs Free Energy=         0.172288
 Sum of electronic and zero-point Energies=           -909.465738
 Sum of electronic and thermal Energies=              -909.450872
 Sum of electronic and thermal Enthalpies=            -909.449928
 Sum of electronic and thermal Free Energies=         -909.507978

                     E (Thermal)             CV                S
                      KCal/Mol        Cal/Mol-Kelvin    Cal/Mol-Kelvin
 Total                  143.947             56.810            122.177
 Electronic               0.000              0.000              0.000
 Translational            0.889              2.981             42.365
 Rotational               0.889              2.981             32.736
 Vibrational            142.169             50.848             47.075
 Vibration     1          0.595              1.978              4.879
 Vibration     2          0.596              1.974              4.512
 Vibration     3          0.598              1.970              4.223
 Vibration     4          0.608              1.937              3.187
 Vibration     5          0.609              1.933              3.114
 Vibration     6          0.616              1.909              2.746
 Vibration     7          0.628              1.871              2.361
 Vibration     8          0.633              1.855              2.237
 Vibration     9          0.643              1.823              2.030
 Vibration    10          0.655              1.786              1.834
 Vibration    11          0.674              1.730              1.602
 Vibration    12          0.677              1.719              1.562
 Vibration    13          0.699              1.656              1.366
 Vibration    14          0.720              1.594              1.209
 Vibration    15          0.734              1.555              1.124
 Vibration    16          0.770              1.459              0.944
 Vibration    17          0.790              1.409              0.865
 Vibration    18          0.825              1.321              0.743
 Vibration    19          0.901              1.148              0.552
 Vibration    20          0.914              1.122              0.527
 Vibration    21          0.923              1.103              0.510
 Vibration    22          0.938              1.073              0.484
 Vibration    23          0.948              1.053              0.467
 Vibration    24          0.960              1.028              0.447

 Optimization completed.
    -- Stationary point found.
 Normal termination of Gaussian 16 at Sun Oct 27 03:53:31 2024.
