 Gaussian 16, Revision C.01,
 Gaussian 16:  EM64L-G16RevC.01  3-Jul-2019

 ------------------------------------------------------
 # PBE1PBE/aug-cc-pVDZ opt freq EmpiricalDispersion=GD3
 ------------------------------------------------------

 ----
 blah
 ----
 Symbolic Z-matrix:
 Charge =  0 Multiplicity = 1

 SCF Done:  E(RPBE1PBE) =  -910.207053147     A.U. after   15 cycles
 SCF Done:  E(RPBE1PBE) =  -910.224839991     A.U. after   13 cycles
 SCF Done:  E(RPBE1PBE) =  -910.225179850     A.U. after   13 cycles
 SCF Done:  E(RPBE1PBE) =  -910.225629031     A.U. after   12 cycles
 SCF Done:  E(RPBE1PBE) =  -910.226100601     A.U. after   12 cycles
 SCF Done:  E(RPBE1PBE) =  -910.226198380     A.U. after   11 cycles
 SCF Done:  E(RPBE1PBE) =  -910.226212783     A.U. after   11 cycles
 SCF Done:  E(RPBE1PBE) =  -910.226217702     A.U. after   10 cycles
 SCF Done:  E(RPBE1PBE) =  -910.226222257     A.U. after    9 cycles
 SCF Done:  E(RPBE1PBE) =  -910.226223447     A.U. after    9 cycles
 SCF Done:  E(RPBE1PBE) =  -910.226224105     A.U. after    9 cycles
 SCF Done:  E(RPBE1PBE) =  -910.226224717     A.U. after    8 cycles
 SCF Done:  E(RPBE1PBE) =  -910.226225140     A.U. after    8 cycles
 SCF Done:  E(RPBE1PBE) =  -910.226225384     A.U. after    8 cycles
 SCF Done:  E(RPBE1PBE) =  -910.226225466     A.U. after    8 cycles
 Optimization completed.
    -- Stationary point found.
 Normal termination of Gaussian 16 at Sat Oct 26 06:23:43 2024.

 ----------------------------------------------------------------------
 #N Geom=AllCheck Guess=TCheck SCRF=Check GenChk RPBE1PBE/Aug-CC-pVDZ F
 req
 ----------------------------------------------------------------------

 Structure from the checkpoint file:  "/scr/Gau-74555.chk"
 ----
 blah
 ----
 Charge =  0 Multiplicity = 1

                         Standard orientation:
 ---------------------------------------------------------------------
 Center     Atomic      Atomic             Coordinates (Angstroms)
 Number     Number       Type             X           Y           Z
 ---------------------------------------------------------------------
      1          6           0        2.389694   -0.259892   -0.618189
      2          6           0        1.229529   -1.278783   -0.595846
      3          6           0        0.403004   -0.883164    0.641114
      4          8           0        1.694518   -2.602799   -0.385076
      5          1           0        0.634877   -1.225186   -1.518453
      6          8           0        1.047985    0.229073    1.250393
      7          1           0        0.425683   -1.750242    1.323372
      8          6           0       -1.020762   -0.514987    0.370876
      9          6           0        2.393672    0.320731    0.798997
     10          1           0        2.162749    0.537185   -1.333511
     11          8           0        3.620316   -0.817516   -1.013343
     12          6           0        2.804837    1.776823    0.885511
     13          1           0        3.056981   -0.288108    1.445539
     14          8           0        2.082017    2.597935   -0.000436
     15          1           0        3.868325    1.861284    0.619932
     16          1           0        2.685017    2.110901    1.931394
     17          1           0        3.847909   -1.500032   -0.370914
     18          1           0        2.180392   -2.865261   -1.174722
     19          1           0        1.167795    2.282293   -0.035971
     20          6           0       -2.059687   -1.175606    0.929773
     21          7           0       -3.362513   -0.841177    0.680630
     22          6           0       -3.740646    0.203045   -0.145370
     23          7           0       -2.666672    0.871301   -0.695981
     24          6           0       -1.309611    0.608787   -0.513918
     25          1           0       -1.908948   -2.014514    1.608259
     26          1           0       -4.124750   -1.348188    1.106418
     27          1           0       -2.898286    1.647129   -1.305384
     28          8           0       -4.900554    0.492732   -0.356428
     29          8           0       -0.473485    1.295595   -1.083384
 ---------------------------------------------------------------------

 SCF Done:  E(RPBE1PBE) =  -910.226225466     A.U. after    1 cycles

 The electronic state is 1-A.
 Alpha  occ. eigenvalues --  -19.24992 -19.24492 -19.24130 -19.22493 -19.22437
 Alpha  occ. eigenvalues --  -19.20840 -14.48829 -14.47299 -10.40386 -10.37426
 Alpha  occ. eigenvalues --  -10.33349 -10.30965 -10.29850 -10.28721 -10.28523
 Alpha  occ. eigenvalues --  -10.27531 -10.27185  -1.13397  -1.10805  -1.09969
 Alpha  occ. eigenvalues --   -1.08147  -1.06322  -1.04077  -1.03302  -0.98014
 Alpha  occ. eigenvalues --   -0.86720  -0.79937  -0.79052  -0.73450  -0.71071
 Alpha  occ. eigenvalues --   -0.70058  -0.64978  -0.62794  -0.61254  -0.60000
 Alpha  occ. eigenvalues --   -0.56406  -0.55642  -0.54725  -0.52405  -0.51882
 Alpha  occ. eigenvalues --   -0.51296  -0.50367  -0.49291  -0.47997  -0.47091
 Alpha  occ. eigenvalues --   -0.45863  -0.44799  -0.44370  -0.42981  -0.42704
 Alpha  occ. eigenvalues --   -0.41608  -0.40448  -0.40081  -0.36433  -0.34676
 Alpha  occ. eigenvalues --   -0.34245  -0.33223  -0.32941  -0.32169  -0.31104
 Alpha  occ. eigenvalues --   -0.29912  -0.28750  -0.27342  -0.27259
 Alpha virt. eigenvalues --   -0.06301  -0.02090  -0.01327  -0.01058   0.00068
 Alpha virt. eigenvalues --    0.00839   0.01510   0.02506   0.02998   0.03304
 Alpha virt. eigenvalues --    0.03932   0.04412   0.04891   0.05160   0.05758

 Mulliken charges:
               1
     1  C    0.898105
     2  C    0.753795
     3  C    1.309030
     4  O   -0.682426
     5  H   -0.437161
     6  O   -0.905863
     7  H   -0.584749
     8  C    0.842116
     9  C    0.568403
    10  H   -0.470005
    11  O   -0.553260
    12  C    1.198303
    13  H   -0.552805
    14  O   -0.516109
    15  H   -0.238628
    16  H   -0.231330
    17  H    0.056883
    18  H    0.104377
    19  H    0.183237
    20  C    1.266780
    21  N   -0.498121
    22  C    0.715648
    23  N   -0.386404
    24  C    0.327438
    25  H   -0.712924
    26  H   -0.065262
    27  H   -0.070650
    28  O   -0.578361
    29  O   -0.740057
 Sum of Mulliken charges =  -0.00000

 Dipole moment (field-independent basis, Debye):
    X=             -1.2714    Y=             -5.0240    Z=              2.2057  Tot=              5.6322
 Quadrupole moment (field-independent basis, Debye-Ang):
   XX=           -107.9192   YY=           -100.8066   ZZ=            -96.3019
   XY=              0.3252   XZ=             -1.5825   YZ=             -0.5107

  Exact polarizability:     193.674       4.035     132.589      -2.671     -10.920     112.836
 Approx polarizability:     250.614      11.567     191.826     -11.561     -27.166     174.801

                      1                      2                      3
                      A                      A                      A
 Frequencies --     41.0919                47.6308                54.0912
 Red. masses --      6.8672                 7.7398                 5.5841
 Frc consts  --      0.0068                 0.0103                 0.0096
 IR Inten    --      0.0174                 0.5415                 1.1435

                      4                      5                      6
                      A                      A                      A
 Frequencies --     84.3979               130.8404               135.8117
 Red. masses --      6.8935                 5.5770                 5.3837
 Frc consts  --      0.0289                 0.0563                 0.0585
 IR Inten    --      1.3145                 5.3839                 6.3979

                      7                      8                      9
                      A                      A                      A
 Frequencies --    162.5070               190.2686               216.2044
 Red. masses --      9.7034                 7.3074                 1.1652
 Frc consts  --      0.1510                 0.1559                 0.0321
 IR Inten    --      2.0992                 0.2099               179.9639

                     10                     11                     12
                      A                      A                      A
 Frequencies --    230.8310               259.9372               276.8368
 Red. masses --      3.6335                 5.7492                 4.5801
 Frc consts  --      0.1141                 0.2289                 0.2068
 IR Inten    --      5.6570                18.2135                 4.8451

                     13                     14                     15
                      A                      A                      A
 Frequencies --    300.2544               344.2570               363.0302
 Red. masses --      5.0820                 6.0649                 5.2233
 Frc consts  --      0.2699                 0.4235                 0.4056
 IR Inten    --      7.1133                19.3643                 9.1673

                     16                     17                     18
                      A                      A                      A
 Frequencies --    398.5998               417.3550               467.3771
 Red. masses --      9.7894                 3.1936                 1.4333
 Frc consts  --      0.9164                 0.3278                 0.1845
 IR Inten    --     20.5126                21.3668               103.4454

                     19                     20                     21
                      A                      A                      A
 Frequencies --    472.3522               540.9322               546.2408
 Red. masses --      2.1126                 6.4900                 2.4784
 Frc consts  --      0.2777                 1.1189                 0.4357
 IR Inten    --     18.1033                26.7157                 1.8751

                     22                     23                     24
                      A                      A                      A
 Frequencies --    555.3917               576.6313               597.8758
 Red. masses --      1.4214                 6.9167                 1.1289
 Frc consts  --      0.2583                 1.3550                 0.2378
 IR Inten    --      2.6848                29.4669                58.6677

                     25                     26                     27
                      A                      A                      A
 Frequencies --    605.0384               640.3620               699.7690
 Red. masses --      6.2222                 5.2921                 4.2982
 Frc consts  --      1.3420                 1.2786                 1.2401
 IR Inten    --      8.1167                 4.1413                 1.4026

                     28                     29                     30
                      A                      A                      A
 Frequencies --    707.8254               748.5728               770.4411
 Red. masses --      1.2770                 4.7329                 8.1735
 Frc consts  --      0.3770                 1.5626                 2.8585
 IR Inten    --     63.7776                 5.0410                37.9232

                     31                     32                     33
                      A                      A                      A
 Frequencies --    775.7306               810.0869               860.1677
 Red. masses --      6.4021                 8.3907                 3.6734
 Frc consts  --      2.2699                 3.2442                 1.6013
 IR Inten    --     10.8586                14.0093                 2.2812

                     34                     35                     36
                      A                      A                      A
 Frequencies --    880.5040               908.9020               940.9962
 Red. masses --      3.6085                 2.3175                 1.4356
 Frc consts  --      1.6483                 1.1280                 0.7490
 IR Inten    --     34.4614                26.8184                13.6784

                     37                     38                     39
                      A                      A                      A
 Frequencies --    973.1148               994.2779              1036.0613
 Red. masses --      2.7789                 2.9535                 2.4094
 Frc consts  --      1.5504                 1.7203                 1.5238
 IR Inten    --      4.7035                 8.4179                38.9672

                     40                     41                     42
                      A                      A                      A
 Frequencies --   1075.0130              1090.4524              1101.2346
 Red. masses --      3.2397                 2.8286                 3.4100
 Frc consts  --      2.2059                 1.9817                 2.4365
 IR Inten    --     27.1903                18.9488               110.8613

                     43                     44                     45
                      A                      A                      A
 Frequencies --   1145.3516              1152.0297              1161.7496
 Red. masses --      2.8660                 2.6786                 3.5120
 Frc consts  --      2.2152                 2.0945                 2.7928
 IR Inten    --    175.0075                55.2570               131.8342

                     46                     47                     48
                      A                      A                      A
 Frequencies --   1178.1310              1220.8310              1229.4099
 Red. masses --      2.2645                 1.3753                 1.5924
 Frc consts  --      1.8519                 1.2077                 1.4180
 IR Inten    --      6.2346               108.7818                 8.4838

                     49                     50                     51
                      A                      A                      A
 Frequencies --   1236.3767              1257.8444              1261.5083
 Red. masses --      1.2723                 1.4669                 1.6141
 Frc consts  --      1.1459                 1.3674                 1.5134
 IR Inten    --     25.8852                 4.7220                 0.6785

                     52                     53                     54
                      A                      A                      A
 Frequencies --   1283.3121              1295.2261              1325.1975
 Red. masses --      1.4290                 1.2212                 1.4388
 Frc consts  --      1.3866                 1.2070                 1.4888
 IR Inten    --     12.2859                 9.4270                15.0746

                     55                     56                     57
                      A                      A                      A
 Frequencies --   1339.2368              1341.6315              1357.1155
 Red. masses --      1.7260                 1.3205                 1.9185
 Frc consts  --      1.8239                 1.4004                 2.0818
 IR Inten    --     35.8482                 0.7593                 4.4966

                     58                     59                     60
                      A                      A                      A
 Frequencies --   1391.3470              1401.0794              1407.4758
 Red. masses --      1.5437                 1.4532                 1.7490
 Frc consts  --      1.7607                 1.6808                 2.0414
 IR Inten    --      3.0770                15.1285                 1.4847

                     61                     62                     63
                      A                      A                      A
 Frequencies --   1433.6327              1435.8127              1441.5303
 Red. masses --      1.4675                 1.5355                 1.4301
 Frc consts  --      1.7770                 1.8651                 1.7509
 IR Inten    --      2.4510                 8.7475                42.5891

                     64                     65                     66
                      A                      A                      A
 Frequencies --   1448.4452              1477.4247              1528.3595
 Red. masses --      3.3134                 1.0825                 4.0408
 Frc consts  --      4.0956                 1.3922                 5.5612
 IR Inten    --     76.5229                 2.9101               166.1908

                     67                     68                     69
                      A                      A                      A
 Frequencies --   1723.1580              1770.2023              1835.0623
 Red. masses --      7.0509                 8.8493                 8.2762
 Frc consts  --     12.3351                16.3383                16.4204
 IR Inten    --     29.3034               726.4560               874.2530

                     70                     71                     72
                      A                      A                      A
 Frequencies --   2979.2382              3020.7735              3028.6787
 Red. masses --      1.0820                 1.0691                 1.0849
 Frc consts  --      5.6584                 5.7480                 5.8635
 IR Inten    --     55.4967                81.2607                26.9783

                     73                     74                     75
                      A                      A                      A
 Frequencies --   3078.4609              3103.0401              3148.0604
 Red. masses --      1.0876                 1.0965                 1.0872
 Frc consts  --      6.0726                 6.2206                 6.3482
 IR Inten    --     25.9839                24.9828                 3.8254

                     76                     77                     78
                      A                      A                      A
 Frequencies --   3225.4993              3625.6486              3669.4163
 Red. masses --      1.0948                 1.0779                 1.0792
 Frc consts  --      6.7107                 8.3483                 8.5612
 IR Inten    --      1.5863                77.8537               129.1576

                     79                     80                     81
                      A                      A                      A
 Frequencies --   3772.6030              3828.9311              3849.6779
 Red. masses --      1.0667                 1.0655                 1.0660
 Frc consts  --      8.9453                 9.2037                 9.3081
 IR Inten    --    194.4665                28.2596                45.9750

 - Thermochemistry -
 -------------------
 Temperature   298.150 Kelvin.  Pressure   1.00000 Atm.
 Atom     1 has atomic number  6 and mass  12.00000

 Molecular mass:   244.06954 amu.
 Principal axes and moments of inertia in atomic units:
                           1         2         3
     Eigenvalues --  1976.409756149.798777102.20502
           X            0.99998   0.00574   0.00066
           Y           -0.00574   0.99998   0.00219
           Z           -0.00065  -0.00219   1.00000
 This molecule is an asymmetric top.
 Rotational symmetry number  1.
 Warning -- assumption of classical behavior for rotation
           may cause significant error
 Rotational temperatures (Kelvin)      0.04382     0.01408     0.01220
 Rotational constants (GHZ):           0.91314     0.29346     0.25411
 Zero-point vibrational energy     600751.5 (Joules/Mol)
                                  143.58305 (Kcal/Mol)
 Warning -- explicit consideration of  25 degrees of freedom as
           vibrations may cause significant error
 Vibrational temperatures:     59.12    68.53    77.83   121.43   188.25
          (Kelvin)            195.40   233.81   273.75   311.07   332.11
                              373.99   398.31   432.00   495.31   522.32
                              573.50   600.48   672.45   679.61   778.28
                              785.92   799.08   829.64   860.21   870.52
                              921.34  1006.81  1018.40  1077.03  1108.49
                             1116.10  1165.53  1237.59  1266.85  1307.71
                             1353.88  1400.10  1430.54  1490.66  1546.70
                             1568.92  1584.43  1647.91  1657.51  1671.50
                             1695.07  1756.50  1768.85  1778.87  1809.76
                             1815.03  1846.40  1863.54  1906.66  1926.86
                             1930.31  1952.59  2001.84  2015.84  2025.04
                             2062.68  2065.81  2074.04  2083.99  2125.68
                             2198.97  2479.24  2546.93  2640.25  4286.46
                             4346.22  4357.59  4429.22  4464.58  4529.36
                             4640.77  5216.50  5279.47  5427.93  5508.98
                             5538.83

 Zero-point correction=                           0.228814 (Hartree/Particle)
 Thermal correction to Energy=                    0.244132
 Thermal correction to Enthalpy=                  0.245076
 Thermal correction to Gibbs Free Energy=         0.185637
 Sum of electronic and zero-point Energies=           -909.997411
 Sum of electronic and thermal Energies=              -909.982094
 Sum of electronic and thermal Enthalpies=            -909.981149
 Sum of electronic and thermal Free Energies=         -910.040588

                     E (Thermal)             CV                S
                      KCal/Mol        Cal/Mol-Kelvin    Cal/Mol-Kelvin
 Total                  153.195             58.385            125.099
 Electronic               0.000              0.000              0.000
 Translational            0.889              2.981             42.378
 Rotational               0.889              2.981             32.823
 Vibrational            151.418             52.423             49.898
 Vibration     1          0.594              1.981              5.206
 Vibration     2          0.595              1.978              4.913
 Vibration     3          0.596              1.976              4.662
 Vibration     4          0.601              1.960              3.786
 Vibration     5          0.612              1.922              2.934
 Vibration     6          0.614              1.918              2.862
 Vibration     7          0.623              1.888              2.520
 Vibration     8          0.634              1.853              2.225
 Vibration     9          0.645              1.816              1.991
 Vibration    10          0.653              1.794              1.872
 Vibration    11          0.668              1.746              1.662
 Vibration    12          0.678              1.716              1.553
 Vibration    13          0.693              1.673              1.415
 Vibration    14          0.723              1.587              1.192
 Vibration    15          0.737              1.548              1.109
 Vibration    16          0.765              1.473              0.968
 Vibration    17          0.780              1.433              0.901
 Vibration    18          0.825              1.322              0.745
 Vibration    19          0.829              1.311              0.731
 Vibration    20          0.896              1.160              0.563
 Vibration    21          0.901              1.148              0.552
 Vibration    22          0.911              1.128              0.533
 Vibration    23          0.933              1.082              0.492
 Vibration    24          0.956              1.036              0.453
 Vibration    25          0.964              1.021              0.441

 Optimization completed.
    -- Stationary point found.
 Normal termination of Gaussian 16 at Sat Oct 26 06:40:00 2024.
