 Gaussian 16, Revision C.01,
 Gaussian 16:  EM64L-G16RevC.01  3-Jul-2019

 ------------------------------------------------------
 # PBE1PBE/aug-cc-pVDZ opt freq EmpiricalDispersion=GD3
 ------------------------------------------------------

 ----
 blah
 ----
 Symbolic Z-matrix:
 Charge =  0 Multiplicity = 2

 SCF Done:  E(UPBE1PBE) =  -909.551148470     A.U. after   22 cycles
 SCF Done:  E(UPBE1PBE) =  -909.555619514     A.U. after   20 cycles
 SCF Done:  E(UPBE1PBE) =  -909.556214661     A.U. after   17 cycles
 SCF Done:  E(UPBE1PBE) =  -909.558159088     A.U. after   17 cycles
 SCF Done:  E(UPBE1PBE) =  -909.558730955     A.U. after   15 cycles
 SCF Done:  E(UPBE1PBE) =  -909.558902967     A.U. after   14 cycles
 SCF Done:  E(UPBE1PBE) =  -909.558974457     A.U. after   15 cycles
 SCF Done:  E(UPBE1PBE) =  -909.559002167     A.U. after   15 cycles
 SCF Done:  E(UPBE1PBE) =  -909.559020514     A.U. after   13 cycles
 SCF Done:  E(UPBE1PBE) =  -909.559026535     A.U. after   12 cycles
 SCF Done:  E(UPBE1PBE) =  -909.559029526     A.U. after   12 cycles
 SCF Done:  E(UPBE1PBE) =  -909.559030462     A.U. after   12 cycles
 SCF Done:  E(UPBE1PBE) =  -909.559030838     A.U. after   12 cycles
 SCF Done:  E(UPBE1PBE) =  -909.559031276     A.U. after   12 cycles
 SCF Done:  E(UPBE1PBE) =  -909.559031554     A.U. after   11 cycles
 SCF Done:  E(UPBE1PBE) =  -909.559031639     A.U. after   10 cycles
 Optimization completed.
    -- Stationary point found.
 Normal termination of Gaussian 16 at Mon Oct 28 00:32:55 2024.

 ----------------------------------------------------------------------
 #N Geom=AllCheck Guess=TCheck SCRF=Check GenChk UPBE1PBE/Aug-CC-pVDZ F
 req
 ----------------------------------------------------------------------

 Structure from the checkpoint file:  "/scr/Gau-27332.chk"
 ----
 blah
 ----
 Charge =  0 Multiplicity = 2

                         Standard orientation:
 ---------------------------------------------------------------------
 Center     Atomic      Atomic             Coordinates (Angstroms)
 Number     Number       Type             X           Y           Z
 ---------------------------------------------------------------------
      1          6           0        2.320927   -0.296825   -0.636533
      2          6           0        1.148813   -1.307551   -0.569250
      3          6           0        0.356158   -0.857208    0.679299
      4          8           0        1.597421   -2.626143   -0.327348
      5          1           0        0.540440   -1.268609   -1.484422
      6          8           0        1.029208    0.254194    1.245696
      7          1           0        0.367349   -1.706912    1.382318
      8          6           0       -1.054772   -0.478123    0.390968
      9          6           0        2.373223    0.295957    0.772725
     10          1           0        2.077688    0.496186   -1.351191
     11          8           0        3.524083   -0.876881   -1.067981
     12          6           0        2.836854    1.737091    0.840226
     13          1           0        3.020226   -0.332060    1.416381
     14          8           0        2.143084    2.573741   -0.052232
     15          1           0        3.901011    1.777022    0.567788
     16          1           0        2.737289    2.085859    1.883208
     17          1           0        3.766803   -1.557978   -0.429269
     18          1           0        2.012638   -2.947251   -1.135313
     19          1           0        1.208712    2.322279   -0.048982
     20          6           0       -2.144630   -1.231043    0.871665
     21          7           0       -3.413368   -0.966181    0.658184
     22          6           0       -3.731772    0.155741   -0.113029
     23          7           0       -2.685540    0.929970   -0.614165
     24          6           0       -1.342112    0.695908   -0.442560
     25          1           0       -1.933415   -2.113239    1.484617
     26          1           0       -2.948458    1.727768   -1.182507
     27          8           0       -4.882674    0.460291   -0.351811
     28          8           0       -0.490381    1.400639   -0.967803
 ---------------------------------------------------------------------

 SCF Done:  E(UPBE1PBE) =  -909.559031639     A.U. after    1 cycles

 The electronic state is 2-A.
 Alpha  occ. eigenvalues --  -19.26701 -19.26415 -19.25520 -19.24796 -19.24226
 Alpha  occ. eigenvalues --  -19.21975 -14.47953 -14.45565 -10.39748 -10.38957
 Alpha  occ. eigenvalues --  -10.33170 -10.32962 -10.32476 -10.32153 -10.30202
 Alpha  occ. eigenvalues --  -10.30174 -10.28380  -1.14090  -1.12590  -1.11727
 Alpha  occ. eigenvalues --   -1.09964  -1.07968  -1.05310  -1.02664  -0.97699
 Alpha  occ. eigenvalues --   -0.88147  -0.81645  -0.79745  -0.72899  -0.72039
 Alpha  occ. eigenvalues --   -0.69318  -0.65653  -0.63983  -0.60794  -0.60231
 Alpha  occ. eigenvalues --   -0.57534  -0.56231  -0.53881  -0.53411  -0.53122
 Alpha  occ. eigenvalues --   -0.51588  -0.50889  -0.49296  -0.48731  -0.47620
 Alpha  occ. eigenvalues --   -0.46930  -0.46022  -0.44588  -0.44070  -0.43252
 Alpha  occ. eigenvalues --   -0.42197  -0.40915  -0.38114  -0.36362  -0.35700
 Alpha  occ. eigenvalues --   -0.35023  -0.34667  -0.33944  -0.33130  -0.32387
 Alpha  occ. eigenvalues --   -0.31644  -0.30532  -0.28850  -0.28611
 Alpha virt. eigenvalues --   -0.06698  -0.02818  -0.02071  -0.00601  -0.00342
 Alpha virt. eigenvalues --    0.00467   0.01733   0.02595   0.02728   0.03101
 Alpha virt. eigenvalues --    0.03491   0.04577   0.04996   0.05565   0.05808

  Beta  occ. eigenvalues --  -19.26696 -19.26350 -19.25502 -19.24494 -19.23727
  Beta  occ. eigenvalues --  -19.21971 -14.47977 -14.44770 -10.39889 -10.39060
  Beta  occ. eigenvalues --  -10.33467 -10.33021 -10.32062 -10.31556 -10.30199
  Beta  occ. eigenvalues --  -10.30157 -10.28378  -1.13571  -1.12359  -1.11157
  Beta  occ. eigenvalues --   -1.09876  -1.07927  -1.05294  -1.01769  -0.97026
  Beta  occ. eigenvalues --   -0.86601  -0.81518  -0.79219  -0.72768  -0.71908
  Beta  occ. eigenvalues --   -0.69032  -0.65475  -0.63895  -0.60461  -0.59929
  Beta  occ. eigenvalues --   -0.57429  -0.55996  -0.53611  -0.53201  -0.52527
  Beta  occ. eigenvalues --   -0.51060  -0.50701  -0.48932  -0.48499  -0.47318
  Beta  occ. eigenvalues --   -0.46705  -0.44577  -0.44185  -0.43966  -0.42986
  Beta  occ. eigenvalues --   -0.42123  -0.38610  -0.37854  -0.36142  -0.35421
  Beta  occ. eigenvalues --   -0.34615  -0.34359  -0.32432  -0.32386  -0.31920
  Beta  occ. eigenvalues --   -0.30938  -0.29737  -0.28576
  Beta virt. eigenvalues --   -0.18639  -0.05433  -0.02067  -0.01019  -0.00545
  Beta virt. eigenvalues --   -0.00270   0.00478   0.01775   0.02638   0.02734
  Beta virt. eigenvalues --    0.03116   0.03567   0.04675   0.05011   0.05601

 Mulliken charges and spin densities:
               1          2
     1  C    0.875339   0.012080
     2  C    0.723445   0.037812
     3  C    1.529763  -0.068555
     4  O   -0.665003   0.002847
     5  H   -0.426908  -0.007991
     6  O   -0.897128   0.007238
     7  H   -0.543620   0.003602
     8  C    0.874993   0.878660
     9  C    0.549807  -0.004384
    10  H   -0.469025  -0.000081
    11  O   -0.542938   0.006147
    12  C    1.211211   0.001049
    13  H   -0.546387  -0.000098
    14  O   -0.510572   0.001035
    15  H   -0.236627   0.000579
    16  H   -0.219757  -0.000062
    17  H    0.059740  -0.000383
    18  H    0.108767   0.001120
    19  H    0.182231  -0.001253
    20  C    0.611937  -0.319257
    21  N   -0.573353   0.398547
    22  C    0.770630  -0.090491
    23  N   -0.379070  -0.007446
    24  C    0.463042  -0.146069
    25  H   -0.612040  -0.001420
    26  H   -0.055919  -0.000875
    27  O   -0.552312   0.188301
    28  O   -0.730247   0.109347
 Sum of Mulliken charges =  -0.00000   1.00000

 Dipole moment (field-independent basis, Debye):
    X=              2.5416    Y=             -3.2662    Z=              0.6319  Tot=              4.1866
 Quadrupole moment (field-independent basis, Debye-Ang):
   XX=           -120.9616   YY=           -100.2506   ZZ=            -96.3825
   XY=            -10.4004   XZ=              6.1044   YZ=              3.0914

  Exact polarizability:     225.056      -1.964     132.591       0.574      -9.097     108.870
 Approx polarizability:     299.780      -0.187     188.649      -3.569     -20.608     167.175

                      1                      2                      3
                      A                      A                      A
 Frequencies --     37.2689                44.1149                53.0873
 Red. masses --     10.2627                 6.3057                 5.8540
 Frc consts  --      0.0084                 0.0072                 0.0097
 IR Inten    --      0.5005                 0.5859                 0.3394

                      4                      5                      6
                      A                      A                      A
 Frequencies --     79.2595               123.1635               129.2517
 Red. masses --      7.0054                 6.6001                 5.3250
 Frc consts  --      0.0259                 0.0590                 0.0524
 IR Inten    --      0.9452                 1.4310                 6.1739

                      7                      8                      9
                      A                      A                      A
 Frequencies --    145.3557               194.6435               218.4493
 Red. masses --      9.0390                 7.1709                 1.1654
 Frc consts  --      0.1125                 0.1601                 0.0328
 IR Inten    --      3.0204                 0.5121               180.7934

                     10                     11                     12
                      A                      A                      A
 Frequencies --    230.0269               257.6078               276.4516
 Red. masses --      3.5123                 6.0132                 4.5906
 Frc consts  --      0.1095                 0.2351                 0.2067
 IR Inten    --      6.2610                15.0073                 5.7345

                     13                     14                     15
                      A                      A                      A
 Frequencies --    297.3335               319.9317               343.6196
 Red. masses --      5.0984                 5.9367                 5.9416
 Frc consts  --      0.2656                 0.3580                 0.4133
 IR Inten    --      8.1418                 6.3019                22.8299

                     16                     17                     18
                      A                      A                      A
 Frequencies --    402.5853               409.3264               468.1131
 Red. masses --      5.1694                 5.0897                 2.9655
 Frc consts  --      0.4936                 0.5024                 0.3829
 IR Inten    --     16.9771                14.6852                26.3801

                     19                     20                     21
                      A                      A                      A
 Frequencies --    472.6593               528.3441               540.9571
 Red. masses --      1.1858                 5.3080                 1.3055
 Frc consts  --      0.1561                 0.8730                 0.2251
 IR Inten    --    106.5198                16.3455                 5.2560

                     22                     23                     24
                      A                      A                      A
 Frequencies --    551.3866               574.9202               612.4195
 Red. masses --      3.6038                 7.3674                 7.7733
 Frc consts  --      0.6455                 1.4348                 1.7177
 IR Inten    --      1.5296                21.1099                 3.7327

                     25                     26                     27
                      A                      A                      A
 Frequencies --    633.4479               697.5111               719.2996
 Red. masses --      5.4976                 5.3661                 1.2314
 Frc consts  --      1.2997                 1.5382                 0.3754
 IR Inten    --      4.1430                 4.6243                66.2810

                     28                     29                     30
                      A                      A                      A
 Frequencies --    742.0672               745.6109               767.9492
 Red. masses --      4.7549                 8.4781                 6.4845
 Frc consts  --      1.5427                 2.7770                 2.2531
 IR Inten    --      6.4719                 1.9752                11.5455

                     31                     32                     33
                      A                      A                      A
 Frequencies --    801.7547               856.1173               872.0129
 Red. masses --      9.0161                 3.9144                 3.5731
 Frc consts  --      3.4147                 1.6904                 1.6008
 IR Inten    --     28.0237                 2.7948                16.1015

                     34                     35                     36
                      A                      A                      A
 Frequencies --    904.1057               946.4222               968.8376
 Red. masses --      2.4102                 3.7353                 2.2319
 Frc consts  --      1.1607                 1.9713                 1.2343
 IR Inten    --     19.7773                11.4305                 7.8596

                     37                     38                     39
                      A                      A                      A
 Frequencies --    980.3453              1013.5224              1073.2361
 Red. masses --      1.6709                 2.4162                 3.0835
 Frc consts  --      0.9461                 1.4624                 2.0926
 IR Inten    --      8.9378                34.0731                21.5528

                     40                     41                     42
                      A                      A                      A
 Frequencies --   1089.8753              1101.2222              1147.0421
 Red. masses --      2.5254                 4.3839                 3.0240
 Frc consts  --      1.7674                 3.1323                 2.3442
 IR Inten    --     12.8732               122.6293               233.5649

                     43                     44                     45
                      A                      A                      A
 Frequencies --   1151.1773              1160.1157              1208.4219
 Red. masses --      3.0230                 3.3400                 1.4735
 Frc consts  --      2.3603                 2.6485                 1.2678
 IR Inten    --     15.7210               125.1125                60.8740

                     46                     47                     48
                      A                      A                      A
 Frequencies --   1229.2233              1234.9808              1253.8743
 Red. masses --      2.3061                 1.2684                 1.5996
 Frc consts  --      2.0530                 1.1398                 1.4817
 IR Inten    --     56.3519                17.8929                17.0681

                     49                     50                     51
                      A                      A                      A
 Frequencies --   1257.8108              1273.6791              1280.0967
 Red. masses --      1.4145                 1.4051                 3.0337
 Frc consts  --      1.3185                 1.3430                 2.9289
 IR Inten    --      7.1796                 8.4213                26.7545

                     52                     53                     54
                      A                      A                      A
 Frequencies --   1290.6599              1321.9198              1336.1563
 Red. masses --      1.2761                 1.4206                 1.4128
 Frc consts  --      1.2525                 1.4626                 1.4861
 IR Inten    --     30.9104                18.0251                18.8003

                     55                     56                     57
                      A                      A                      A
 Frequencies --   1345.7535              1373.9825              1391.5920
 Red. masses --      1.3315                 2.4452                 1.9144
 Frc consts  --      1.4207                 2.7198                 2.1843
 IR Inten    --      5.9010                13.6416                 2.5833

                     58                     59                     60
                      A                      A                      A
 Frequencies --   1402.5153              1413.5186              1421.2906
 Red. masses --      1.5348                 1.9927                 1.7176
 Frc consts  --      1.7787                 2.3458                 2.0443
 IR Inten    --     35.0764                17.6514                28.2940

                     61                     62                     63
                      A                      A                      A
 Frequencies --   1433.4869              1441.3767              1464.0359
 Red. masses --      1.3690                 1.4260                 3.2738
 Frc consts  --      1.6574                 1.7455                 4.1344
 IR Inten    --     18.0381                32.7816                74.1411

                     64                     65                     66
                      A                      A                      A
 Frequencies --   1475.8907              1512.7678              1736.6746
 Red. masses --      1.0822                 4.7134                 7.9296
 Frc consts  --      1.3889                 6.3552                14.0909
 IR Inten    --      3.5863                32.8058               472.5295

                     67                     68                     69
                      A                      A                      A
 Frequencies --   1745.5098              2988.2629              3024.3696
 Red. masses --     12.6051                 1.0821                 1.0692
 Frc consts  --     22.6277                 5.6929                 5.7621
 IR Inten    --     75.6356                47.1601                76.6613

                     70                     71                     72
                      A                      A                      A
 Frequencies --   3039.4017              3071.2274              3106.7116
 Red. masses --      1.0848                 1.0872                 1.0967
 Frc consts  --      5.9043                 6.0420                 6.2367
 IR Inten    --     17.4176                22.3689                19.4590

                     73                     74                     75
                      A                      A                      A
 Frequencies --   3148.1435              3161.9583              3611.2991
 Red. masses --      1.0872                 1.0917                 1.0779
 Frc consts  --      6.3484                 6.4307                 8.2827
 IR Inten    --      3.3349                 6.4634                77.1218

                     76                     77                     78
                      A                      A                      A
 Frequencies --   3774.7488              3827.0723              3853.1551
 Red. masses --      1.0667                 1.0655                 1.0661
 Frc consts  --      8.9553                 9.1950                 9.3261
 IR Inten    --    184.8904                37.3148                61.5211

 - Thermochemistry -
 -------------------
 Temperature   298.150 Kelvin.  Pressure   1.00000 Atm.
 Atom     1 has atomic number  6 and mass  12.00000

 Molecular mass:   243.06171 amu.
 Principal axes and moments of inertia in atomic units:
                           1         2         3
     Eigenvalues --  1979.658886015.422777041.62120
           X            0.99999   0.00106   0.00369
           Y           -0.00108   0.99997   0.00706
           Z           -0.00368  -0.00706   0.99997
 This molecule is an asymmetric top.
 Rotational symmetry number  1.
 Warning -- assumption of classical behavior for rotation
           may cause significant error
 Rotational temperatures (Kelvin)      0.04375     0.01440     0.01230
 Rotational constants (GHZ):           0.91164     0.30002     0.25630
 Zero-point vibrational energy     563043.5 (Joules/Mol)
                                  134.57062 (Kcal/Mol)
 Warning -- explicit consideration of  24 degrees of freedom as
           vibrations may cause significant error
 Vibrational temperatures:     53.62    63.47    76.38   114.04   177.20
          (Kelvin)            185.96   209.13   280.05   314.30   330.96
                              370.64   397.75   427.80   460.31   494.39
                              579.23   588.93   673.51   680.05   760.17
                              778.32   793.32   827.18   881.14   911.39
                             1003.56  1034.91  1067.67  1072.77  1104.91
                             1153.55  1231.76  1254.63  1300.81  1361.69
                             1393.94  1410.50  1458.23  1544.15  1568.09
                             1584.41  1650.34  1656.29  1669.15  1738.65
                             1768.58  1776.86  1804.05  1809.71  1832.54
                             1841.77  1856.97  1901.95  1922.43  1936.24
                             1976.85  2002.19  2017.91  2033.74  2044.92
                             2062.47  2073.82  2106.42  2123.48  2176.54
                             2498.69  2511.40  4299.44  4351.39  4373.02
                             4418.81  4469.87  4529.48  4549.35  5195.85
                             5431.02  5506.30  5543.83

 Zero-point correction=                           0.214452 (Hartree/Particle)
 Thermal correction to Energy=                    0.229772
 Thermal correction to Enthalpy=                  0.230716
 Thermal correction to Gibbs Free Energy=         0.170281
 Sum of electronic and zero-point Energies=           -909.344580
 Sum of electronic and thermal Energies=              -909.329260
 Sum of electronic and thermal Enthalpies=            -909.328315
 Sum of electronic and thermal Free Energies=         -909.388751

                     E (Thermal)             CV                S
                      KCal/Mol        Cal/Mol-Kelvin    Cal/Mol-Kelvin
 Total                  144.184             57.598            127.197
 Electronic               0.000              0.000              1.377
 Translational            0.889              2.981             42.365
 Rotational               0.889              2.981             32.794
 Vibrational            142.407             51.637             50.660
 Vibration     1          0.594              1.982              5.399
 Vibration     2          0.595              1.980              5.065
 Vibration     3          0.596              1.976              4.699
 Vibration     4          0.600              1.963              3.909
 Vibration     5          0.610              1.930              3.050
 Vibration     6          0.612              1.924              2.957
 Vibration     7          0.617              1.908              2.732
 Vibration     8          0.635              1.847              2.183
 Vibration     9          0.646              1.813              1.972
 Vibration    10          0.652              1.795              1.879
 Vibration    11          0.667              1.750              1.678
 Vibration    12          0.678              1.717              1.556
 Vibration    13          0.691              1.679              1.432
 Vibration    14          0.706              1.635              1.310
 Vibration    15          0.722              1.588              1.195
 Vibration    16          0.768              1.465              0.953
 Vibration    17          0.774              1.450              0.929
 Vibration    18          0.825              1.321              0.743
 Vibration    19          0.830              1.311              0.730
 Vibration    20          0.883              1.187              0.591
 Vibration    21          0.896              1.160              0.563
 Vibration    22          0.907              1.137              0.541
 Vibration    23          0.931              1.086              0.495
 Vibration    24          0.972              1.006              0.429

 Optimization completed.
    -- Stationary point found.
 Normal termination of Gaussian 16 at Mon Oct 28 00:59:32 2024.
