 Gaussian 16, Revision C.01,
 Gaussian 16:  EM64L-G16RevC.01  3-Jul-2019

 ------------------------------------------------------
 # PBE1PBE/aug-cc-pVDZ opt freq EmpiricalDispersion=GD3
 ------------------------------------------------------

 ----
 blah
 ----
 Symbolic Z-matrix:
 Charge = -1 Multiplicity = 1

 SCF Done:  E(RPBE1PBE) =  -909.683687348     A.U. after   14 cycles
 SCF Done:  E(RPBE1PBE) =  -909.695471254     A.U. after   12 cycles
 SCF Done:  E(RPBE1PBE) =  -909.695976758     A.U. after   12 cycles
 SCF Done:  E(RPBE1PBE) =  -909.695593665     A.U. after   12 cycles
 SCF Done:  E(RPBE1PBE) =  -909.696390310     A.U. after   13 cycles
 SCF Done:  E(RPBE1PBE) =  -909.697138910     A.U. after   12 cycles
 SCF Done:  E(RPBE1PBE) =  -909.697258412     A.U. after   12 cycles
 SCF Done:  E(RPBE1PBE) =  -909.697340933     A.U. after   11 cycles
 SCF Done:  E(RPBE1PBE) =  -909.697356384     A.U. after   11 cycles
 SCF Done:  E(RPBE1PBE) =  -909.697360922     A.U. after   10 cycles
 SCF Done:  E(RPBE1PBE) =  -909.697363835     A.U. after    9 cycles
 SCF Done:  E(RPBE1PBE) =  -909.697365002     A.U. after    9 cycles
 SCF Done:  E(RPBE1PBE) =  -909.697365697     A.U. after    9 cycles
 SCF Done:  E(RPBE1PBE) =  -909.697366152     A.U. after    8 cycles
 SCF Done:  E(RPBE1PBE) =  -909.697366933     A.U. after    9 cycles
 SCF Done:  E(RPBE1PBE) =  -909.697367640     A.U. after    9 cycles
 SCF Done:  E(RPBE1PBE) =  -909.697368026     A.U. after    9 cycles
 SCF Done:  E(RPBE1PBE) =  -909.697368082     A.U. after    8 cycles
 Optimization completed.
    -- Stationary point found.
 Normal termination of Gaussian 16 at Sun Oct 27 03:22:01 2024.

 ----------------------------------------------------------------------
 #N Geom=AllCheck Guess=TCheck SCRF=Check GenChk RPBE1PBE/Aug-CC-pVDZ F
 req
 ----------------------------------------------------------------------

 Structure from the checkpoint file:  "/scr/Gau-36256.chk"
 ----
 blah
 ----
 Charge = -1 Multiplicity = 1

                         Standard orientation:
 ---------------------------------------------------------------------
 Center     Atomic      Atomic             Coordinates (Angstroms)
 Number     Number       Type             X           Y           Z
 ---------------------------------------------------------------------
      1          6           0        2.282651   -0.199141   -0.655075
      2          6           0        1.235283   -1.319610   -0.570877
      3          6           0        0.373286   -0.965553    0.652085
      4          8           0        1.865239   -2.579921   -0.323084
      5          1           0        0.623519   -1.379036   -1.480772
      6          8           0        1.068918    0.088067    1.349426
      7          1           0        0.355175   -1.860984    1.295740
      8          6           0       -1.028791   -0.553996    0.365978
      9          6           0        2.332434    0.345884    0.775968
     10          1           0        1.932327    0.579090   -1.339011
     11          8           0        3.543017   -0.632282   -1.137834
     12          6           0        2.609310    1.835876    0.872918
     13          1           0        3.128323   -0.195999    1.333546
     14          8           0        1.794996    2.623108    0.045560
     15          1           0        3.660145    2.012371    0.586487
     16          1           0        2.497363    2.126074    1.935075
     17          1           0        3.859978   -1.289893   -0.507530
     18          1           0        2.335916   -2.813562   -1.129906
     19          1           0        0.948515    2.159243   -0.135423
     20          6           0       -2.129914   -1.243577    0.858893
     21          7           0       -3.419841   -0.983459    0.655487
     22          6           0       -3.715749    0.097479   -0.123244
     23          7           0       -2.632248    0.841231   -0.625199
     24          6           0       -1.290208    0.596057   -0.435825
     25          1           0       -1.930111   -2.118112    1.493780
     26          1           0       -2.872156    1.648181   -1.186243
     27          8           0       -4.855640    0.469470   -0.414687
     28          8           0       -0.439553    1.352522   -0.959718
 ---------------------------------------------------------------------

 SCF Done:  E(RPBE1PBE) =  -909.697368082     A.U. after    1 cycles

 The electronic state is 1-A.
 Alpha  occ. eigenvalues --  -19.14465 -19.14272 -19.11930 -19.09129 -19.06385
 Alpha  occ. eigenvalues --  -19.04000 -14.30246 -14.23864 -10.20951 -10.20527
 Alpha  occ. eigenvalues --  -10.18290 -10.17752 -10.17709 -10.17705 -10.16665
 Alpha  occ. eigenvalues --  -10.14863 -10.09738  -0.99207  -0.96415  -0.95819
 Alpha  occ. eigenvalues --   -0.94529  -0.92440  -0.91873  -0.83071  -0.78156
 Alpha  occ. eigenvalues --   -0.70717  -0.68766  -0.64520  -0.58023  -0.54512
 Alpha  occ. eigenvalues --   -0.53040  -0.51542  -0.49574  -0.45693  -0.44679
 Alpha  occ. eigenvalues --   -0.41706  -0.40661  -0.40391  -0.39377  -0.37786
 Alpha  occ. eigenvalues --   -0.35727  -0.34091  -0.33551  -0.33340  -0.32139
 Alpha  occ. eigenvalues --   -0.31580  -0.30371  -0.30106  -0.29425  -0.28048
 Alpha  occ. eigenvalues --   -0.26718  -0.25025  -0.23624  -0.23150  -0.21704
 Alpha  occ. eigenvalues --   -0.20657  -0.18833  -0.17667  -0.16507  -0.15552
 Alpha  occ. eigenvalues --   -0.15109  -0.14371  -0.12985  -0.08895
 Alpha virt. eigenvalues --    0.06893   0.08606   0.09919   0.10219   0.10961
 Alpha virt. eigenvalues --    0.11270   0.11464   0.12078   0.12814   0.12854
 Alpha virt. eigenvalues --    0.14426   0.14816   0.15021   0.15523   0.15834

 Mulliken charges:
               1
     1  C    0.854483
     2  C    0.823664
     3  C    1.196384
     4  O   -0.693317
     5  H   -0.438557
     6  O   -0.868825
     7  H   -0.555337
     8  C    1.051024
     9  C    0.633606
    10  H   -0.532465
    11  O   -0.585506
    12  C    1.186217
    13  H   -0.572900
    14  O   -0.550527
    15  H   -0.258287
    16  H   -0.245322
    17  H    0.056263
    18  H    0.092203
    19  H    0.241968
    20  C    0.583664
    21  N   -0.674616
    22  C    0.711154
    23  N   -0.413841
    24  C    0.430166
    25  H   -0.685614
    26  H   -0.107350
    27  O   -0.725439
    28  O   -0.952891
 Sum of Mulliken charges =  -1.00000

 Dipole moment (field-independent basis, Debye):
    X=              9.3859    Y=             -3.0978    Z=             -0.0345  Tot=              9.8840
 Quadrupole moment (field-independent basis, Debye-Ang):
   XX=           -168.3567   YY=           -115.5154   ZZ=           -105.6184
   XY=            -10.1490   XZ=              4.3309   YZ=              4.8834

  Exact polarizability:     210.958       2.044     144.137       1.526     -11.646     119.144
 Approx polarizability:     272.465       4.695     208.285      -1.449     -28.055     183.444

                      1                      2                      3
                      A                      A                      A
 Frequencies --     45.0072                55.7294                70.9338
 Red. masses --      7.9267                 5.5567                 6.6926
 Frc consts  --      0.0095                 0.0102                 0.0198
 IR Inten    --      0.5745                 0.4521                 0.6881

                      4                      5                      6
                      A                      A                      A
 Frequencies --    114.2253               129.3957               140.5540
 Red. masses --      6.2805                 4.9384                 6.2649
 Frc consts  --      0.0483                 0.0487                 0.0729
 IR Inten    --      6.0933                10.4838                 2.6357

                      7                      8                      9
                      A                      A                      A
 Frequencies --    171.4334               178.0391               199.6175
 Red. masses --      8.2674                 1.2890                 6.5887
 Frc consts  --      0.1432                 0.0241                 0.1547
 IR Inten    --      5.2780               135.6268                39.9943

                     10                     11                     12
                      A                      A                      A
 Frequencies --    234.8550               264.3847               270.8124
 Red. masses --      3.9884                 7.5600                 4.2397
 Frc consts  --      0.1296                 0.3113                 0.1832
 IR Inten    --      4.9553                 1.6379                 8.6722

                     13                     14                     15
                      A                      A                      A
 Frequencies --    304.8817               333.1493               371.0843
 Red. masses --      5.4115                 6.2874                 5.5450
 Frc consts  --      0.2964                 0.4112                 0.4499
 IR Inten    --      7.0046                24.9511                 8.7618

                     16                     17                     18
                      A                      A                      A
 Frequencies --    406.1051               453.4426               470.3549
 Red. masses --     12.1295                 3.4058                 3.3813
 Frc consts  --      1.1786                 0.4126                 0.4407
 IR Inten    --     15.8184                 1.8194                 6.3019

                     19                     20                     21
                      A                      A                      A
 Frequencies --    545.6812               551.3544               557.8311
 Red. masses --      2.0221                 3.1676                 2.2700
 Frc consts  --      0.3548                 0.5673                 0.4162
 IR Inten    --     16.9244                18.8733                 5.6509

                     22                     23                     24
                      A                      A                      A
 Frequencies --    588.1248               628.6845               646.8120
 Red. masses --      7.8200                 8.0360                 5.0542
 Frc consts  --      1.5937                 1.8713                 1.2458
 IR Inten    --     12.9865                18.5547                 4.6222

                     25                     26                     27
                      A                      A                      A
 Frequencies --    684.1567               706.5504               716.5483
 Red. masses --      1.0699                 1.1634                 5.2501
 Frc consts  --      0.2950                 0.3422                 1.5882
 IR Inten    --     48.3371                76.9138                 7.6162

                     28                     29                     30
                      A                      A                      A
 Frequencies --    756.1842               790.1237               799.3094
 Red. masses --      5.1122                10.4520                 6.6376
 Frc consts  --      1.7223                 3.8445                 2.4985
 IR Inten    --     12.0825                 0.2564                 6.6990

                     31                     32                     33
                      A                      A                      A
 Frequencies --    817.1398               859.7527               880.8204
 Red. masses --     10.5182                 4.0765                 3.9906
 Frc consts  --      4.1379                 1.7754                 1.8242
 IR Inten    --     34.7959                 6.5401                40.2120

                     34                     35                     36
                      A                      A                      A
 Frequencies --    903.0763               962.3658               985.5479
 Red. masses --      2.4198                 3.1484                 2.8474
 Frc consts  --      1.1627                 1.7180                 1.6295
 IR Inten    --     20.5211                18.0429                23.3940

                     37                     38                     39
                      A                      A                      A
 Frequencies --    987.3306              1020.0778              1045.5913
 Red. masses --      1.5479                 2.4610                 3.0579
 Frc consts  --      0.8891                 1.5088                 1.9697
 IR Inten    --     11.7615                85.9377                49.0484

                     40                     41                     42
                      A                      A                      A
 Frequencies --   1078.9921              1103.6260              1125.1744
 Red. masses --      2.4891                 3.5300                 2.8121
 Frc consts  --      1.7073                 2.5332                 2.0976
 IR Inten    --      9.8569                45.6685               154.5285

                     43                     44                     45
                      A                      A                      A
 Frequencies --   1154.5468              1175.9584              1187.4485
 Red. masses --      2.8206                 3.1028                 4.0048
 Frc consts  --      2.2152                 2.5281                 3.3271
 IR Inten    --     82.6546               107.3393                11.1106

                     46                     47                     48
                      A                      A                      A
 Frequencies --   1209.6937              1238.0441              1253.8495
 Red. masses --      1.2701                 1.4278                 1.6786
 Frc consts  --      1.0950                 1.2894                 1.5549
 IR Inten    --     21.6207                35.9737                19.4349

                     49                     50                     51
                      A                      A                      A
 Frequencies --   1271.1206              1280.5597              1291.7831
 Red. masses --      1.1740                 1.6527                 2.0093
 Frc consts  --      1.1176                 1.5968                 1.9755
 IR Inten    --      1.8222                 5.4029                 6.3961

                     52                     53                     54
                      A                      A                      A
 Frequencies --   1296.0716              1321.3870              1343.9670
 Red. masses --      1.2288                 1.4150                 1.6982
 Frc consts  --      1.2162                 1.4557                 1.8073
 IR Inten    --      2.3468                48.2761               141.7098

                     55                     56                     57
                      A                      A                      A
 Frequencies --   1344.8540              1351.1403              1379.3010
 Red. masses --      1.6443                 1.4614                 1.5454
 Frc consts  --      1.7522                 1.5719                 1.7323
 IR Inten    --     28.3514                 5.0948                 5.8805

                     58                     59                     60
                      A                      A                      A
 Frequencies --   1387.7602              1395.4770              1424.9073
 Red. masses --      2.0758                 1.5223                 2.1346
 Frc consts  --      2.3555                 1.7467                 2.5535
 IR Inten    --      8.4757                13.8684                13.7739

                     61                     62                     63
                      A                      A                      A
 Frequencies --   1435.5375              1463.8535              1476.4977
 Red. masses --      1.3966                 1.2644                 1.0932
 Frc consts  --      1.6957                 1.5963                 1.4041
 IR Inten    --     18.8361                49.7009                 1.2975

                     64                     65                     66
                      A                      A                      A
 Frequencies --   1513.3359              1635.2606              1676.4899
 Red. masses --      8.4363                 6.9321                 6.8012
 Frc consts  --     11.3834                10.9217                11.2625
 IR Inten    --     66.5379               407.5514               995.1725

                     67                     68                     69
                      A                      A                      A
 Frequencies --   1731.2059              2921.5414              2988.2538
 Red. masses --      9.9768                 1.0809                 1.0668
 Frc consts  --     17.6173                 5.4356                 5.6126
 IR Inten    --    955.9127               108.9727               141.4857

                     70                     71                     72
                      A                      A                      A
 Frequencies --   3033.1122              3046.6085              3088.8474
 Red. masses --      1.0849                 1.0963                 1.0880
 Frc consts  --      5.8803                 5.9956                 6.1161
 IR Inten    --     33.1694                72.9429                25.0412

                     73                     74                     75
                      A                      A                      A
 Frequencies --   3098.8059              3160.1412              3475.4094
 Red. masses --      1.0888                 1.0875                 1.0713
 Frc consts  --      6.1603                 6.3988                 7.6241
 IR Inten    --     56.7136                 1.9156               828.6983

                     76                     77                     78
                      A                      A                      A
 Frequencies --   3635.0995              3824.4864              3853.2290
 Red. masses --      1.0770                 1.0651                 1.0658
 Frc consts  --      8.3852                 9.1792                 9.3238
 IR Inten    --     23.5457                16.6154                21.9572

 - Thermochemistry -
 -------------------
 Temperature   298.150 Kelvin.  Pressure   1.00000 Atm.
 Atom     1 has atomic number  6 and mass  12.00000

 Molecular mass:   243.06171 amu.
 Principal axes and moments of inertia in atomic units:
                           1         2         3
     Eigenvalues --  1989.665225916.870426901.04303
           X            1.00000   0.00125   0.00286
           Y           -0.00127   0.99996   0.00834
           Z           -0.00285  -0.00834   0.99996
 This molecule is an asymmetric top.
 Rotational symmetry number  1.
 Warning -- assumption of classical behavior for rotation
           may cause significant error
 Rotational temperatures (Kelvin)      0.04353     0.01464     0.01255
 Rotational constants (GHZ):           0.90706     0.30502     0.26152
 Zero-point vibrational energy     564161.6 (Joules/Mol)
                                  134.83785 (Kcal/Mol)
 Warning -- explicit consideration of  22 degrees of freedom as
           vibrations may cause significant error
 Vibrational temperatures:     64.76    80.18   102.06   164.34   186.17
          (Kelvin)            202.23   246.65   256.16   287.21   337.90
                              380.39   389.64   438.66   479.33   533.91
                              584.29   652.40   676.74   785.11   793.28
                              802.59   846.18   904.54   930.62   984.35
                             1016.57  1030.95  1087.98  1136.81  1150.03
                             1175.68  1236.99  1267.30  1299.33  1384.63
                             1417.98  1420.55  1467.66  1504.37  1552.43
                             1587.87  1618.87  1661.14  1691.94  1708.47
                             1740.48  1781.27  1804.01  1828.86  1842.44
                             1858.59  1864.76  1901.18  1933.67  1934.94
                             1943.99  1984.51  1996.68  2007.78  2050.12
                             2065.42  2106.16  2124.35  2177.35  2352.78
                             2412.10  2490.82  4203.45  4299.43  4363.97
                             4383.39  4444.16  4458.49  4546.74  5000.34
                             5230.10  5502.58  5543.94

 Zero-point correction=                           0.214878 (Hartree/Particle)
 Thermal correction to Energy=                    0.229712
 Thermal correction to Enthalpy=                  0.230656
 Thermal correction to Gibbs Free Energy=         0.172535
 Sum of electronic and zero-point Energies=           -909.482490
 Sum of electronic and thermal Energies=              -909.467656
 Sum of electronic and thermal Enthalpies=            -909.466712
 Sum of electronic and thermal Free Energies=         -909.524833

                     E (Thermal)             CV                S
                      KCal/Mol        Cal/Mol-Kelvin    Cal/Mol-Kelvin
 Total                  144.147             56.492            122.328
 Electronic               0.000              0.000              0.000
 Translational            0.889              2.981             42.365
 Rotational               0.889              2.981             32.763
 Vibrational            142.369             50.531             47.199
 Vibration     1          0.595              1.979              5.026
 Vibration     2          0.596              1.975              4.603
 Vibration     3          0.598              1.968              4.127
 Vibration     4          0.607              1.938              3.196
 Vibration     5          0.612              1.924              2.955
 Vibration     6          0.615              1.913              2.796
 Vibration     7          0.626              1.878              2.420
 Vibration     8          0.628              1.869              2.349
 Vibration     9          0.638              1.840              2.137
 Vibration    10          0.655              1.787              1.842
 Vibration    11          0.671              1.738              1.633
 Vibration    12          0.675              1.727              1.591
 Vibration    13          0.696              1.664              1.390
 Vibration    14          0.715              1.609              1.245
 Vibration    15          0.743              1.532              1.075
 Vibration    16          0.771              1.457              0.940
 Vibration    17          0.812              1.353              0.785
 Vibration    18          0.827              1.316              0.737
 Vibration    19          0.901              1.149              0.553
 Vibration    20          0.907              1.137              0.541
 Vibration    21          0.913              1.123              0.528
 Vibration    22          0.945              1.057              0.471

 Optimization completed.
    -- Stationary point found.
 Normal termination of Gaussian 16 at Sun Oct 27 03:37:14 2024.
