 Gaussian 16, Revision C.01,
 Gaussian 16:  EM64L-G16RevC.01  3-Jul-2019

 ------------------------------------------------------
 # PBE1PBE/aug-cc-pVDZ opt freq EmpiricalDispersion=GD3
 ------------------------------------------------------

 ----
 blah
 ----
 Symbolic Z-matrix:
 Charge =  0 Multiplicity = 2

 SCF Done:  E(UPBE1PBE) =  -909.515182521     A.U. after   34 cycles
 SCF Done:  E(UPBE1PBE) =  -909.517141675     A.U. after   28 cycles
 SCF Done:  E(UPBE1PBE) =  -909.518018188     A.U. after   26 cycles
 SCF Done:  E(UPBE1PBE) =  -909.519747850     A.U. after   24 cycles
 SCF Done:  E(UPBE1PBE) =  -909.520999558     A.U. after   25 cycles
 SCF Done:  E(UPBE1PBE) =  -909.521404658     A.U. after   22 cycles
 SCF Done:  E(UPBE1PBE) =  -909.521492636     A.U. after   24 cycles
 SCF Done:  E(UPBE1PBE) =  -909.521895818     A.U. after   21 cycles
 SCF Done:  E(UPBE1PBE) =  -909.522319897     A.U. after   22 cycles
 SCF Done:  E(UPBE1PBE) =  -909.521663011     A.U. after   23 cycles
 SCF Done:  E(UPBE1PBE) =  -909.524135948     A.U. after   18 cycles
 SCF Done:  E(UPBE1PBE) =  -909.524145480     A.U. after   17 cycles
 SCF Done:  E(UPBE1PBE) =  -909.524150385     A.U. after   17 cycles
 SCF Done:  E(UPBE1PBE) =  -909.524151657     A.U. after   15 cycles
 SCF Done:  E(UPBE1PBE) =  -909.524152152     A.U. after   14 cycles
 SCF Done:  E(UPBE1PBE) =  -909.524152406     A.U. after   14 cycles
 SCF Done:  E(UPBE1PBE) =  -909.524152512     A.U. after   12 cycles
 SCF Done:  E(UPBE1PBE) =  -909.524152583     A.U. after   12 cycles
 SCF Done:  E(UPBE1PBE) =  -909.524152628     A.U. after   11 cycles
 Optimization completed.
    -- Stationary point found.
 Normal termination of Gaussian 16 at Mon Oct 28 06:02:54 2024.

 ----------------------------------------------------------------------
 #N Geom=AllCheck Guess=TCheck SCRF=Check GenChk UPBE1PBE/Aug-CC-pVDZ F
 req
 ----------------------------------------------------------------------

 Structure from the checkpoint file:  "/scr/Gau-56697.chk"
 ----
 blah
 ----
 Charge =  0 Multiplicity = 2

                         Standard orientation:
 ---------------------------------------------------------------------
 Center     Atomic      Atomic             Coordinates (Angstroms)
 Number     Number       Type             X           Y           Z
 ---------------------------------------------------------------------
      1          6           0        2.326544   -0.282548   -0.635112
      2          6           0        1.163547   -1.296377   -0.570203
      3          6           0        0.357206   -0.858422    0.665820
      4          8           0        1.626435   -2.613577   -0.326065
      5          1           0        0.556866   -1.268649   -1.486947
      6          8           0        1.035606    0.238990    1.258233
      7          1           0        0.353318   -1.716109    1.360938
      8          6           0       -1.061514   -0.461223    0.397443
      9          6           0        2.374510    0.305634    0.777037
     10          1           0        2.081009    0.512065   -1.347752
     11          8           0        3.540296   -0.849177   -1.064401
     12          6           0        2.817106    1.753169    0.849985
     13          1           0        3.037008   -0.314137    1.413737
     14          8           0        2.103645    2.585658   -0.030451
     15          1           0        3.878706    1.811906    0.570360
     16          1           0        2.719982    2.093277    1.896414
     17          1           0        3.800706   -1.508960   -0.410868
     18          1           0        2.101416   -2.901787   -1.113503
     19          1           0        1.175632    2.310796   -0.033940
     20          6           0       -2.105841   -0.999430    1.078438
     21          7           0       -3.399754   -0.672229    0.802695
     22          6           0       -3.708380    0.189847   -0.243832
     23          7           0       -2.642195    0.523256   -1.054134
     24          6           0       -1.333892    0.615509   -0.573788
     25          1           0       -1.950428   -1.706225    1.893242
     26          1           0       -4.159480   -0.925140    1.419818
     27          8           0       -4.834705    0.601491   -0.444041
     28          8           0       -0.505877    1.393967   -1.002796
 ---------------------------------------------------------------------

 SCF Done:  E(UPBE1PBE) =  -909.524152628     A.U. after    1 cycles

 The electronic state is 2-A.
 Alpha  occ. eigenvalues --  -19.25536 -19.25232 -19.25188 -19.24636 -19.23852
 Alpha  occ. eigenvalues --  -19.21087 -14.49693 -14.48869 -10.41101 -10.38193
 Alpha  occ. eigenvalues --  -10.34635 -10.31916 -10.30625 -10.29271 -10.29249
 Alpha  occ. eigenvalues --  -10.29113 -10.27553  -1.14781  -1.11709  -1.10891
 Alpha  occ. eigenvalues --   -1.08773  -1.06893  -1.04774  -1.04381  -0.97968
 Alpha  occ. eigenvalues --   -0.87491  -0.80592  -0.79685  -0.72894  -0.71439
 Alpha  occ. eigenvalues --   -0.69768  -0.65156  -0.63236  -0.61415  -0.60317
 Alpha  occ. eigenvalues --   -0.56775  -0.55873  -0.53320  -0.52807  -0.52498
 Alpha  occ. eigenvalues --   -0.51215  -0.49947  -0.49529  -0.49093  -0.47355
 Alpha  occ. eigenvalues --   -0.46532  -0.44942  -0.43597  -0.43251  -0.42418
 Alpha  occ. eigenvalues --   -0.41437  -0.41014  -0.38157  -0.36998  -0.35557
 Alpha  occ. eigenvalues --   -0.35161  -0.34514  -0.33628  -0.33260  -0.32028
 Alpha  occ. eigenvalues --   -0.30519  -0.29487  -0.28128  -0.27684
 Alpha virt. eigenvalues --   -0.07210  -0.02542  -0.02248  -0.01395   0.00025
 Alpha virt. eigenvalues --    0.00972   0.01279   0.02744   0.02959   0.03402
 Alpha virt. eigenvalues --    0.03846   0.04054   0.05171   0.05388   0.05880

  Beta  occ. eigenvalues --  -19.25537 -19.25213 -19.24704 -19.24635 -19.23771
  Beta  occ. eigenvalues --  -19.21088 -14.49675 -14.47207 -10.41241 -10.38254
  Beta  occ. eigenvalues --  -10.34550 -10.31897 -10.30618 -10.29271 -10.29116
  Beta  occ. eigenvalues --  -10.29113 -10.27553  -1.13828  -1.11527  -1.10674
  Beta  occ. eigenvalues --   -1.08751  -1.06891  -1.04425  -1.04135  -0.95080
  Beta  occ. eigenvalues --   -0.87045  -0.80577  -0.79555  -0.72467  -0.70835
  Beta  occ. eigenvalues --   -0.69353  -0.64929  -0.63179  -0.60905  -0.60119
  Beta  occ. eigenvalues --   -0.56719  -0.55704  -0.52785  -0.52464  -0.52020
  Beta  occ. eigenvalues --   -0.50943  -0.49853  -0.48989  -0.48547  -0.47085
  Beta  occ. eigenvalues --   -0.46178  -0.44721  -0.43376  -0.43231  -0.42148
  Beta  occ. eigenvalues --   -0.41053  -0.40344  -0.37000  -0.35555  -0.35151
  Beta  occ. eigenvalues --   -0.34612  -0.33307  -0.32563  -0.31664  -0.30491
  Beta  occ. eigenvalues --   -0.29043  -0.28143  -0.27670
  Beta virt. eigenvalues --   -0.19206  -0.06057  -0.02495  -0.01775  -0.01389
  Beta virt. eigenvalues --    0.00054   0.01003   0.01329   0.02769   0.02986
  Beta virt. eigenvalues --    0.03511   0.03916   0.04131   0.05190   0.05639

 Mulliken charges and spin densities:
               1          2
     1  C    0.879710  -0.000172
     2  C    0.771392   0.010729
     3  C    1.110112  -0.014184
     4  O   -0.681414  -0.000295
     5  H   -0.427022   0.002588
     6  O   -0.900361   0.004657
     7  H   -0.551477   0.009923
     8  C    1.070576   0.067197
     9  C    0.579735   0.001635
    10  H   -0.472727  -0.000357
    11  O   -0.549885   0.000142
    12  C    1.205702   0.000020
    13  H   -0.550351   0.000292
    14  O   -0.514348   0.000076
    15  H   -0.242962  -0.000094
    16  H   -0.220899   0.000009
    17  H    0.056101  -0.000007
    18  H    0.108324  -0.000275
    19  H    0.187146   0.000258
    20  C    1.031425   0.065847
    21  N   -0.458482   0.011615
    22  C    0.813213  -0.127506
    23  N   -0.558857   0.857979
    24  C    0.248682  -0.104399
    25  H   -0.666278  -0.001711
    26  H   -0.074686   0.000539
    27  O   -0.547286   0.174685
    28  O   -0.645081   0.040811
 Sum of Mulliken charges =  -0.00000   1.00000

 Dipole moment (field-independent basis, Debye):
    X=             -0.7037    Y=             -5.9309    Z=              4.1122  Tot=              7.2513
 Quadrupole moment (field-independent basis, Debye-Ang):
   XX=           -103.3468   YY=           -103.7807   ZZ=            -96.4650
   XY=              2.7593   XZ=             -8.2837   YZ=              2.3351

  Exact polarizability:     214.342      -0.249     132.150       1.098     -15.378     121.668
 Approx polarizability:     280.821       6.064     194.232      -5.290     -35.960     193.392

                      1                      2                      3
                      A                      A                      A
 Frequencies --     37.1807                43.4858                55.4013
 Red. masses --     10.4268                 6.3181                 6.2044
 Frc consts  --      0.0085                 0.0070                 0.0112
 IR Inten    --      0.3525                 0.0575                 4.8971

                      4                      5                      6
                      A                      A                      A
 Frequencies --     77.9478               117.7945               129.1034
 Red. masses --      6.6005                 6.9388                 4.8718
 Frc consts  --      0.0236                 0.0567                 0.0478
 IR Inten    --      1.5897                 3.2651                 8.0263

                      7                      8                      9
                      A                      A                      A
 Frequencies --    141.8387               188.6859               213.1151
 Red. masses --     12.2573                 7.7637                 1.1395
 Frc consts  --      0.1453                 0.1629                 0.0305
 IR Inten    --      1.4949                 0.2458               184.3020

                     10                     11                     12
                      A                      A                      A
 Frequencies --    228.9299               255.8726               274.5234
 Red. masses --      3.7197                 6.0186                 4.5342
 Frc consts  --      0.1149                 0.2322                 0.2013
 IR Inten    --      2.7866                17.7662                 3.8754

                     13                     14                     15
                      A                      A                      A
 Frequencies --    296.2386               333.6821               347.7497
 Red. masses --      4.9618                 5.9141                 7.5974
 Frc consts  --      0.2566                 0.3880                 0.5413
 IR Inten    --      7.2535                 8.6116                 1.5104

                     16                     17                     18
                      A                      A                      A
 Frequencies --    364.0811               418.6040               440.3388
 Red. masses --      4.7012                 3.7961                10.1764
 Frc consts  --      0.3672                 0.3919                 1.1626
 IR Inten    --     10.1423                27.5353                18.4048

                     19                     20                     21
                      A                      A                      A
 Frequencies --    471.1604               482.3211               526.6387
 Red. masses --      5.6130                 1.0950                 4.9437
 Frc consts  --      0.7341                 0.1501                 0.8078
 IR Inten    --     16.1613               123.4531                 3.5967

                     22                     23                     24
                      A                      A                      A
 Frequencies --    546.9518               557.3474               564.0766
 Red. masses --      1.3371                 1.8910                 1.8257
 Frc consts  --      0.2357                 0.3461                 0.3423
 IR Inten    --     12.3854                11.0810                59.1957

                     25                     26                     27
                      A                      A                      A
 Frequencies --    599.1981               639.2164               695.7598
 Red. masses --      3.4594                 5.5000                 6.2320
 Frc consts  --      0.7318                 1.3241                 1.7774
 IR Inten    --     16.1855                 4.5080                 4.8456

                     28                     29                     30
                      A                      A                      A
 Frequencies --    727.1729               741.4149               764.7530
 Red. masses --      7.0446                 6.4329                 5.9382
 Frc consts  --      2.1947                 2.0834                 2.0462
 IR Inten    --     17.6679                 1.7975                22.4320

                     31                     32                     33
                      A                      A                      A
 Frequencies --    780.5664               836.3494               871.5571
 Red. masses --      8.3658                 6.9185                 2.9183
 Frc consts  --      3.0032                 2.8513                 1.3061
 IR Inten    --      5.6968                12.9636                14.9809

                     34                     35                     36
                      A                      A                      A
 Frequencies --    903.7455               919.7216               938.7480
 Red. masses --      2.3715                 3.6748                 1.7232
 Frc consts  --      1.1412                 1.8314                 0.8947
 IR Inten    --      4.7044                66.8017                29.1938

                     37                     38                     39
                      A                      A                      A
 Frequencies --    974.3943              1032.3291              1074.0811
 Red. masses --      2.7508                 2.3824                 3.1833
 Frc consts  --      1.5388                 1.4959                 2.1637
 IR Inten    --      9.5431                40.0870                25.7857

                     40                     41                     42
                      A                      A                      A
 Frequencies --   1080.8804              1097.2923              1106.8523
 Red. masses --      2.9097                 5.5978                 2.8182
 Frc consts  --      2.0029                 3.9711                 2.0342
 IR Inten    --      9.6867               114.8539                58.3201

                     43                     44                     45
                      A                      A                      A
 Frequencies --   1147.7511              1151.6954              1162.2032
 Red. masses --      2.9879                 2.8452                 3.2288
 Frc consts  --      2.3191                 2.2235                 2.5695
 IR Inten    --    223.9116                23.0181               120.1552

                     46                     47                     48
                      A                      A                      A
 Frequencies --   1193.4050              1209.7282              1226.2185
 Red. masses --      1.6449                 3.5496                 1.3578
 Frc consts  --      1.3803                 3.0606                 1.2028
 IR Inten    --     37.0714                11.0538                29.6716

                     49                     50                     51
                      A                      A                      A
 Frequencies --   1236.4325              1258.0445              1272.9689
 Red. masses --      1.2465                 1.3860                 1.5841
 Frc consts  --      1.1227                 1.2925                 1.5124
 IR Inten    --     20.0376                 2.0868                 1.6649

                     52                     53                     54
                      A                      A                      A
 Frequencies --   1288.5161              1294.1960              1325.0629
 Red. masses --      1.4647                 1.3201                 1.9492
 Frc consts  --      1.4328                 1.3027                 2.0164
 IR Inten    --     20.2038                 7.3804                19.2872

                     55                     56                     57
                      A                      A                      A
 Frequencies --   1328.8678              1342.8754              1349.5878
 Red. masses --      1.7794                 1.3531                 1.5517
 Frc consts  --      1.8513                 1.4376                 1.6652
 IR Inten    --     31.4823                 5.6484                48.3851

                     58                     59                     60
                      A                      A                      A
 Frequencies --   1381.9109              1400.2608              1430.4165
 Red. masses --      1.4121                 1.4352                 1.5204
 Frc consts  --      1.5888                 1.6579                 1.8329
 IR Inten    --     15.3072                24.7023                 8.4894

                     61                     62                     63
                      A                      A                      A
 Frequencies --   1435.1715              1441.7041              1476.2239
 Red. masses --      1.4355                 1.4365                 1.0825
 Frc consts  --      1.7420                 1.7592                 1.3899
 IR Inten    --      6.2909                34.5561                 2.3860

                     64                     65                     66
                      A                      A                      A
 Frequencies --   1487.6756              1668.0251              1684.4424
 Red. masses --      2.4155                 8.6901                 7.0748
 Frc consts  --      3.1498                14.2456                11.8270
 IR Inten    --     24.1440               364.1342               458.4502

                     67                     68                     69
                      A                      A                      A
 Frequencies --   1729.7060              2980.8325              3020.1147
 Red. masses --     12.8029                 1.0820                 1.0696
 Frc consts  --     22.5686                 5.6643                 5.7478
 IR Inten    --    445.6847                56.2706                79.4781

                     70                     71                     72
                      A                      A                      A
 Frequencies --   3023.3587              3070.9262              3103.6140
 Red. masses --      1.0843                 1.0875                 1.0963
 Frc consts  --      5.8398                 6.0425                 6.2215
 IR Inten    --     24.2324                22.2864                24.4516

                     73                     74                     75
                      A                      A                      A
 Frequencies --   3143.4989              3224.3986              3649.7735
 Red. masses --      1.0872                 1.0946                 1.0793
 Frc consts  --      6.3297                 6.7049                 8.4710
 IR Inten    --      3.9073                 0.9067               127.7827

                     76                     77                     78
                      A                      A                      A
 Frequencies --   3771.8260              3830.2856              3848.4661
 Red. masses --      1.0668                 1.0656                 1.0660
 Frc consts  --      8.9420                 9.2106                 9.3023
 IR Inten    --    204.7086                31.2208                49.0898

 - Thermochemistry -
 -------------------
 Temperature   298.150 Kelvin.  Pressure   1.00000 Atm.
 Atom     1 has atomic number  6 and mass  12.00000

 Molecular mass:   243.06171 amu.
 Principal axes and moments of inertia in atomic units:
                           1         2         3
     Eigenvalues --  1978.421046081.807716929.50934
           X            0.99996   0.00812  -0.00336
           Y           -0.00808   0.99991   0.01070
           Z            0.00345  -0.01067   0.99994
 This molecule is an asymmetric top.
 Rotational symmetry number  1.
 Warning -- assumption of classical behavior for rotation
           may cause significant error
 Rotational temperatures (Kelvin)      0.04378     0.01424     0.01250
 Rotational constants (GHZ):           0.91221     0.29674     0.26044
 Zero-point vibrational energy     559178.2 (Joules/Mol)
                                  133.64679 (Kcal/Mol)
 Warning -- explicit consideration of  25 degrees of freedom as
           vibrations may cause significant error
 Vibrational temperatures:     53.49    62.57    79.71   112.15   169.48
          (Kelvin)            185.75   204.07   271.48   306.63   329.38
                              368.14   394.98   426.22   480.09   500.33
                              523.83   602.28   633.55   677.89   693.95
                              757.72   786.94   801.90   811.58   862.11
                              919.69  1001.04  1046.24  1066.73  1100.31
                             1123.06  1203.32  1253.98  1300.29  1323.27
                             1350.65  1401.94  1485.29  1545.36  1555.15
                             1578.76  1592.51  1651.36  1657.03  1672.15
                             1717.04  1740.53  1764.25  1778.95  1810.05
                             1831.52  1853.89  1862.06  1906.47  1911.94
                             1932.10  1941.76  1988.26  2014.66  2058.05
                             2064.89  2074.29  2123.96  2140.43  2399.92
                             2423.54  2488.66  4288.75  4345.27  4349.94
                             4418.38  4465.41  4522.79  4639.19  5251.21
                             5426.82  5510.93  5537.08

 Zero-point correction=                           0.212980 (Hartree/Particle)
 Thermal correction to Energy=                    0.228561
 Thermal correction to Enthalpy=                  0.229505
 Thermal correction to Gibbs Free Energy=         0.168625
 Sum of electronic and zero-point Energies=           -909.311173
 Sum of electronic and thermal Energies=              -909.295592
 Sum of electronic and thermal Enthalpies=            -909.294648
 Sum of electronic and thermal Free Energies=         -909.355528

                     E (Thermal)             CV                S
                      KCal/Mol        Cal/Mol-Kelvin    Cal/Mol-Kelvin
 Total                  143.424             58.604            128.132
 Electronic               0.000              0.000              1.377
 Translational            0.889              2.981             42.365
 Rotational               0.889              2.981             32.789
 Vibrational            141.647             52.642             51.601
 Vibration     1          0.594              1.982              5.404
 Vibration     2          0.595              1.980              5.094
 Vibration     3          0.596              1.975              4.615
 Vibration     4          0.599              1.964              3.942
 Vibration     5          0.608              1.935              3.136
 Vibration     6          0.612              1.924              2.959
 Vibration     7          0.615              1.911              2.779
 Vibration     8          0.633              1.855              2.241
 Vibration     9          0.644              1.821              2.017
 Vibration    10          0.652              1.797              1.887
 Vibration    11          0.666              1.753              1.690
 Vibration    12          0.677              1.720              1.568
 Vibration    13          0.690              1.681              1.438
 Vibration    14          0.715              1.608              1.242
 Vibration    15          0.725              1.580              1.176
 Vibration    16          0.738              1.546              1.105
 Vibration    17          0.781              1.430              0.897
 Vibration    18          0.800              1.382              0.826
 Vibration    19          0.828              1.314              0.734
 Vibration    20          0.839              1.289              0.704
 Vibration    21          0.882              1.191              0.595
 Vibration    22          0.902              1.146              0.551
 Vibration    23          0.913              1.124              0.529
 Vibration    24          0.920              1.109              0.516
 Vibration    25          0.957              1.033              0.451

 Optimization completed.
    -- Stationary point found.
 Normal termination of Gaussian 16 at Mon Oct 28 06:29:07 2024.
