 Gaussian 16, Revision C.01,
 Gaussian 16:  EM64L-G16RevC.01  3-Jul-2019

 ------------------------------------------------------
 # PBE1PBE/aug-cc-pVDZ opt freq EmpiricalDispersion=GD3
 ------------------------------------------------------

 ----
 blah
 ----
 Symbolic Z-matrix:
 Charge =  0 Multiplicity = 1

 SCF Done:  E(RPBE1PBE) =  -910.212474987     A.U. after   14 cycles
 SCF Done:  E(RPBE1PBE) =  -910.229426215     A.U. after   13 cycles
 SCF Done:  E(RPBE1PBE) =  -910.229332321     A.U. after   13 cycles
 SCF Done:  E(RPBE1PBE) =  -910.231984277     A.U. after   12 cycles
 SCF Done:  E(RPBE1PBE) =  -910.232640072     A.U. after   12 cycles
 SCF Done:  E(RPBE1PBE) =  -910.233109650     A.U. after   12 cycles
 SCF Done:  E(RPBE1PBE) =  -910.233483456     A.U. after   12 cycles
 SCF Done:  E(RPBE1PBE) =  -910.233655539     A.U. after   12 cycles
 SCF Done:  E(RPBE1PBE) =  -910.233710047     A.U. after   12 cycles
 SCF Done:  E(RPBE1PBE) =  -910.233777666     A.U. after   10 cycles
 SCF Done:  E(RPBE1PBE) =  -910.233810711     A.U. after   11 cycles
 SCF Done:  E(RPBE1PBE) =  -910.233818815     A.U. after   10 cycles
 SCF Done:  E(RPBE1PBE) =  -910.233820778     A.U. after    9 cycles
 SCF Done:  E(RPBE1PBE) =  -910.233821200     A.U. after    8 cycles
 SCF Done:  E(RPBE1PBE) =  -910.233821355     A.U. after    8 cycles
 Optimization completed.
    -- Stationary point found.
 Normal termination of Gaussian 16 at Sat Oct 26 05:37:13 2024.

 ----------------------------------------------------------------------
 #N Geom=AllCheck Guess=TCheck SCRF=Check GenChk RPBE1PBE/Aug-CC-pVDZ F
 req
 ----------------------------------------------------------------------

 Structure from the checkpoint file:  "/scr/Gau-56282.chk"
 ----
 blah
 ----
 Charge =  0 Multiplicity = 1

                         Standard orientation:
 ---------------------------------------------------------------------
 Center     Atomic      Atomic             Coordinates (Angstroms)
 Number     Number       Type             X           Y           Z
 ---------------------------------------------------------------------
      1          6           0        2.774360    0.558603    0.146423
      2          6           0        1.339730    0.921580    0.547737
      3          6           0        0.546004    0.299615   -0.615499
      4          8           0        1.231989    2.312095    0.671898
      5          1           0        1.077025    0.402595    1.485304
      6          8           0        1.211326   -0.922236   -0.878565
      7          1           0        0.632482    0.985487   -1.478843
      8          6           0       -0.903115    0.012549   -0.356247
      9          6           0        2.616875   -0.775779   -0.584979
     10          1           0        3.425097    0.465031    1.029764
     11          8           0        3.282027    1.515960   -0.756772
     12          6           0        3.038568   -1.998289    0.203621
     13          1           0        3.180639   -0.725858   -1.528739
     14          8           0        2.340973   -2.109960    1.428540
     15          1           0        4.106279   -1.923240    0.447684
     16          1           0        2.893751   -2.897565   -0.419641
     17          1           0        2.899316    2.362621   -0.482777
     18          1           0        0.293062    2.544233    0.541898
     19          1           0        1.402303   -2.101206    1.210744
     20          6           0       -1.435956   -1.224831   -0.493778
     21          7           0       -2.765423   -1.476332   -0.288409
     22          6           0       -3.686433   -0.506519    0.056824
     23          7           0       -3.121555    0.748388    0.181902
     24          6           0       -1.789325    1.101689    0.018167
     25          1           0       -0.822249   -2.073927   -0.785809
     26          1           0       -3.142012   -2.407162   -0.395390
     27          1           0       -3.757723    1.491620    0.446215
     28          8           0       -4.865298   -0.735866    0.232314
     29          8           0       -1.448938    2.270165    0.195275
 ---------------------------------------------------------------------

 SCF Done:  E(RPBE1PBE) =  -910.233821355     A.U. after    1 cycles

 The electronic state is 1-A.
 Alpha  occ. eigenvalues --  -19.25834 -19.23768 -19.23678 -19.22993 -19.22799
 Alpha  occ. eigenvalues --  -19.22403 -14.49170 -14.48005 -10.40765 -10.38397
 Alpha  occ. eigenvalues --  -10.33309 -10.31238 -10.29602 -10.29498 -10.28961
 Alpha  occ. eigenvalues --  -10.28919 -10.28131  -1.13929  -1.11416  -1.10888
 Alpha  occ. eigenvalues --   -1.07618  -1.06594  -1.04789  -1.03687  -0.98631
 Alpha  occ. eigenvalues --   -0.87001  -0.80786  -0.79181  -0.74174  -0.71790
 Alpha  occ. eigenvalues --   -0.70575  -0.65504  -0.62974  -0.61607  -0.59775
 Alpha  occ. eigenvalues --   -0.56294  -0.55981  -0.54493  -0.53396  -0.52344
 Alpha  occ. eigenvalues --   -0.52106  -0.51654  -0.50385  -0.48606  -0.47698
 Alpha  occ. eigenvalues --   -0.46193  -0.45390  -0.45004  -0.44561  -0.42093
 Alpha  occ. eigenvalues --   -0.42041  -0.40470  -0.39759  -0.37977  -0.36656
 Alpha  occ. eigenvalues --   -0.34256  -0.33597  -0.33055  -0.31835  -0.31086
 Alpha  occ. eigenvalues --   -0.30119  -0.29691  -0.29262  -0.27192
 Alpha virt. eigenvalues --   -0.06847  -0.02332  -0.01593  -0.00054   0.00287
 Alpha virt. eigenvalues --    0.00703   0.01685   0.01781   0.02780   0.03140
 Alpha virt. eigenvalues --    0.03791   0.03916   0.04987   0.05425   0.05614

 Mulliken charges:
               1
     1  C    0.992644
     2  C    0.774403
     3  C    0.726712
     4  O   -0.661300
     5  H   -0.538306
     6  O   -0.762193
     7  H   -0.358562
     8  C    0.594570
     9  C    0.952710
    10  H   -0.385026
    11  O   -0.701584
    12  C    1.058391
    13  H   -0.515934
    14  O   -0.500283
    15  H   -0.254834
    16  H   -0.260712
    17  H    0.168627
    18  H    0.185121
    19  H    0.161887
    20  C    1.322963
    21  N   -0.510029
    22  C    0.687824
    23  N   -0.389673
    24  C    0.542627
    25  H   -0.773873
    26  H   -0.075395
    27  H   -0.058807
    28  O   -0.572024
    29  O   -0.849944
 Sum of Mulliken charges =  -0.00000

 Dipole moment (field-independent basis, Debye):
    X=             -1.0316    Y=             -3.1755    Z=             -1.3230  Tot=              3.5914
 Quadrupole moment (field-independent basis, Debye-Ang):
   XX=           -115.1588   YY=            -97.7094   ZZ=           -102.7205
   XY=             -2.4275   XZ=              0.6876   YZ=              4.2155

  Exact polarizability:     183.102       9.378     150.073      -5.550       4.149     101.018
 Approx polarizability:     228.658      22.556     233.397      -8.262       8.749     154.953

                      1                      2                      3
                      A                      A                      A
 Frequencies --     30.3896                45.6146                74.0795
 Red. masses --      6.5574                 8.2633                 6.8402
 Frc consts  --      0.0036                 0.0101                 0.0221
 IR Inten    --      0.7391                 0.2761                 4.0528

                      4                      5                      6
                      A                      A                      A
 Frequencies --     92.5873               123.6074               148.9204
 Red. masses --      8.2307                 4.2681                 7.7677
 Frc consts  --      0.0416                 0.0384                 0.1015
 IR Inten    --      2.0419                 3.8464                 7.7253

                      7                      8                      9
                      A                      A                      A
 Frequencies --    168.2204               194.3284               232.2246
 Red. masses --      8.2570                 6.8124                 4.3290
 Frc consts  --      0.1377                 0.1516                 0.1375
 IR Inten    --      2.2475                 1.1209                10.4596

                     10                     11                     12
                      A                      A                      A
 Frequencies --    250.6308               279.8096               311.7067
 Red. masses --      4.8415                 5.8007                 3.6348
 Frc consts  --      0.1792                 0.2676                 0.2081
 IR Inten    --      9.8494                10.1733                 4.6363

                     13                     14                     15
                      A                      A                      A
 Frequencies --    330.5634               353.0541               400.3758
 Red. masses --      3.4670                 4.3536                 2.5263
 Frc consts  --      0.2232                 0.3197                 0.2386
 IR Inten    --      2.8914                36.4918                36.1345

                     16                     17                     18
                      A                      A                      A
 Frequencies --    413.5554               428.3570               452.9037
 Red. masses --      6.3013                 1.7948                 2.2105
 Frc consts  --      0.6350                 0.1940                 0.2672
 IR Inten    --     54.7836                61.6446                18.2161

                     19                     20                     21
                      A                      A                      A
 Frequencies --    485.8955               537.1908               559.2274
 Red. masses --      1.3834                 5.3590                 7.5895
 Frc consts  --      0.1924                 0.9111                 1.3984
 IR Inten    --     93.3930                19.6767                19.8287

                     22                     23                     24
                      A                      A                      A
 Frequencies --    566.7962               607.1304               609.4523
 Red. masses --      6.5620                 1.1226                 4.9454
 Frc consts  --      1.2421                 0.2438                 1.0823
 IR Inten    --      3.0457                54.5921                19.5068

                     25                     26                     27
                      A                      A                      A
 Frequencies --    653.2091               663.7905               705.5063
 Red. masses --      4.3848                 1.2342                 1.2038
 Frc consts  --      1.1023                 0.3204                 0.3530
 IR Inten    --     17.3939                50.5468                55.2696

                     28                     29                     30
                      A                      A                      A
 Frequencies --    722.0742               745.6000               769.1193
 Red. masses --      3.8180                 5.8863                 8.2697
 Frc consts  --      1.1729                 1.9280                 2.8822
 IR Inten    --      8.4116                16.6347                33.0397

                     31                     32                     33
                      A                      A                      A
 Frequencies --    792.2165               799.1498               882.2345
 Red. masses --      6.9430                 8.1334                 3.2174
 Frc consts  --      2.5673                 3.0604                 1.4755
 IR Inten    --     23.9490                 8.5961                11.5641

                     34                     35                     36
                      A                      A                      A
 Frequencies --    910.3267               916.3586               940.0499
 Red. masses --      3.7450                 1.9963                 2.5168
 Frc consts  --      1.8285                 0.9877                 1.3104
 IR Inten    --     28.7001                 8.6885                17.5911

                     37                     38                     39
                      A                      A                      A
 Frequencies --    959.4826               996.2837              1024.8399
 Red. masses --      1.5133                 2.7539                 2.9177
 Frc consts  --      0.8208                 1.6105                 1.8056
 IR Inten    --     13.0801                 6.2856                31.9680

                     40                     41                     42
                      A                      A                      A
 Frequencies --   1072.5237              1092.7134              1101.1057
 Red. masses --      2.8468                 3.0948                 2.5404
 Frc consts  --      1.9294                 2.1772                 1.8147
 IR Inten    --     18.1426                17.4507                83.8897

                     43                     44                     45
                      A                      A                      A
 Frequencies --   1128.6966              1156.1200              1167.7165
 Red. masses --      3.1240                 3.3188                 3.0304
 Frc consts  --      2.3448                 2.6136                 2.4346
 IR Inten    --     67.4855               103.8638                66.8178

                     46                     47                     48
                      A                      A                      A
 Frequencies --   1180.5905              1217.4591              1226.3948
 Red. masses --      2.0637                 1.2142                 1.3589
 Frc consts  --      1.6947                 1.0604                 1.2042
 IR Inten    --     52.6471                32.3067                40.8953

                     49                     50                     51
                      A                      A                      A
 Frequencies --   1229.9918              1256.7567              1271.2675
 Red. masses --      1.7788                 2.1862                 1.3513
 Frc consts  --      1.5856                 2.0344                 1.2867
 IR Inten    --    116.7435                 2.7626                19.9579

                     52                     53                     54
                      A                      A                      A
 Frequencies --   1286.1916              1306.1677              1335.3256
 Red. masses --      1.1834                 1.4428                 1.4285
 Frc consts  --      1.1535                 1.4503                 1.5007
 IR Inten    --      9.2567                 5.4880                 6.7236

                     55                     56                     57
                      A                      A                      A
 Frequencies --   1352.8525              1360.7544              1373.5744
 Red. masses --      1.4461                 1.3121                 1.7652
 Frc consts  --      1.5594                 1.4314                 1.9623
 IR Inten    --      3.2491                12.8499                37.7800

                     58                     59                     60
                      A                      A                      A
 Frequencies --   1381.6322              1395.3997              1408.2754
 Red. masses --      1.5406                 1.6234                 1.8258
 Frc consts  --      1.7327                 1.8623                 2.1334
 IR Inten    --     32.6943                24.1879                 2.3788

                     61                     62                     63
                      A                      A                      A
 Frequencies --   1413.5320              1427.7981              1448.0667
 Red. masses --      1.3793                 1.9490                 2.0259
 Frc consts  --      1.6238                 2.3410                 2.5029
 IR Inten    --     59.5526                 1.4706                81.6585

                     64                     65                     66
                      A                      A                      A
 Frequencies --   1456.6384              1477.1092              1536.8672
 Red. masses --      1.8551                 1.0871                 4.5621
 Frc consts  --      2.3191                 1.3974                 6.3488
 IR Inten    --     91.8645                 4.4355               166.6139

                     67                     68                     69
                      A                      A                      A
 Frequencies --   1712.6077              1747.6788              1837.3038
 Red. masses --      7.1133                 8.3013                 8.1926
 Frc consts  --     12.2924                14.9389                16.2942
 IR Inten    --      3.7327               615.8757               914.1609

                     70                     71                     72
                      A                      A                      A
 Frequencies --   3006.0558              3028.2708              3035.6466
 Red. masses --      1.0818                 1.0683                 1.0848
 Frc consts  --      5.7597                 5.7723                 5.8901
 IR Inten    --     10.0009                48.4353                22.4087

                     73                     74                     75
                      A                      A                      A
 Frequencies --   3060.9130              3076.9270              3124.4217
 Red. masses --      1.0870                 1.0864                 1.0970
 Frc consts  --      6.0007                 6.0601                 6.3095
 IR Inten    --     42.0797                36.7950                19.1318

                     76                     77                     78
                      A                      A                      A
 Frequencies --   3248.3700              3586.7209              3626.6248
 Red. masses --      1.0944                 1.0679                 1.0779
 Frc consts  --      6.8036                 8.0945                 8.3528
 IR Inten    --      0.7736               556.4425                77.6069

                     79                     80                     81
                      A                      A                      A
 Frequencies --   3666.9061              3760.2775              3842.6692
 Red. masses --      1.0791                 1.0651                 1.0656
 Frc consts  --      8.5493                 8.8730                 9.2704
 IR Inten    --    115.8177                68.6960                34.7862

 - Thermochemistry -
 -------------------
 Temperature   298.150 Kelvin.  Pressure   1.00000 Atm.
 Atom     1 has atomic number  6 and mass  12.00000

 Molecular mass:   244.06954 amu.
 Principal axes and moments of inertia in atomic units:
                           1         2         3
     Eigenvalues --  2065.875666024.262967424.64864
           X            0.99998  -0.00700   0.00038
           Y            0.00700   0.99996   0.00509
           Z           -0.00042  -0.00509   0.99999
 This molecule is an asymmetric top.
 Rotational symmetry number  1.
 Warning -- assumption of classical behavior for rotation
           may cause significant error
 Rotational temperatures (Kelvin)      0.04193     0.01438     0.01167
 Rotational constants (GHZ):           0.87360     0.29958     0.24307
 Zero-point vibrational energy     601720.3 (Joules/Mol)
                                  143.81460 (Kcal/Mol)
 Warning -- explicit consideration of  24 degrees of freedom as
           vibrations may cause significant error
 Vibrational temperatures:     43.72    65.63   106.58   133.21   177.84
          (Kelvin)            214.26   242.03   279.60   334.12   360.60
                              402.58   448.48   475.61   507.97   576.05
                              595.01   616.31   651.63   699.10   772.90
                              804.60   815.49   873.53   876.87   939.82
                              955.05  1015.07  1038.90  1072.75  1106.59
                             1139.82  1149.80  1269.34  1309.76  1318.44
                             1352.52  1380.48  1433.43  1474.52  1543.12
                             1572.17  1584.25  1623.94  1663.40  1680.08
                             1698.61  1751.65  1764.51  1769.68  1808.19
                             1829.07  1850.54  1879.28  1921.24  1946.45
                             1957.82  1976.27  1987.86  2007.67  2026.19
                             2033.76  2054.28  2083.44  2095.78  2125.23
                             2211.21  2464.06  2514.52  2643.47  4325.04
                             4357.01  4367.62  4403.97  4427.01  4495.35
                             4673.68  5160.49  5217.90  5275.86  5410.20
                             5528.74

 Zero-point correction=                           0.229183 (Hartree/Particle)
 Thermal correction to Energy=                    0.244125
 Thermal correction to Enthalpy=                  0.245069
 Thermal correction to Gibbs Free Energy=         0.186357
 Sum of electronic and zero-point Energies=           -910.004638
 Sum of electronic and thermal Energies=              -909.989697
 Sum of electronic and thermal Enthalpies=            -909.988752
 Sum of electronic and thermal Free Energies=         -910.047465

                     E (Thermal)             CV                S
                      KCal/Mol        Cal/Mol-Kelvin    Cal/Mol-Kelvin
 Total                  153.191             57.596            123.571
 Electronic               0.000              0.000              0.000
 Translational            0.889              2.981             42.378
 Rotational               0.889              2.981             32.891
 Vibrational            151.413             51.635             48.302
 Vibration     1          0.594              1.984              5.804
 Vibration     2          0.595              1.979              4.999
 Vibration     3          0.599              1.966              4.042
 Vibration     4          0.602              1.954              3.605
 Vibration     5          0.610              1.929              3.043
 Vibration     6          0.618              1.904              2.686
 Vibration     7          0.625              1.882              2.455
 Vibration     8          0.635              1.848              2.186
 Vibration     9          0.653              1.792              1.862
 Vibration    10          0.663              1.762              1.726
 Vibration    11          0.680              1.711              1.535
 Vibration    12          0.700              1.651              1.353
 Vibration    13          0.713              1.614              1.257
 Vibration    14          0.729              1.569              1.153
 Vibration    15          0.766              1.469              0.961
 Vibration    16          0.777              1.441              0.914
 Vibration    17          0.790              1.409              0.864
 Vibration    18          0.811              1.354              0.787
 Vibration    19          0.842              1.281              0.694
 Vibration    20          0.892              1.168              0.571
 Vibration    21          0.915              1.120              0.525
 Vibration    22          0.923              1.103              0.510
 Vibration    23          0.966              1.017              0.438
 Vibration    24          0.968              1.012              0.434

 Optimization completed.
    -- Stationary point found.
 Normal termination of Gaussian 16 at Sat Oct 26 05:53:21 2024.
