 Gaussian 16, Revision C.01,
 Gaussian 16:  EM64L-G16RevC.01  3-Jul-2019

 ------------------------------------------------------
 # PBE1PBE/aug-cc-pVDZ opt freq EmpiricalDispersion=GD3
 ------------------------------------------------------

 ----
 blah
 ----
 Symbolic Z-matrix:
 Charge =  0 Multiplicity = 2

 SCF Done:  E(UPBE1PBE) =  -909.527351072     A.U. after   31 cycles
 SCF Done:  E(UPBE1PBE) =  -909.531431657     A.U. after   23 cycles
 SCF Done:  E(UPBE1PBE) =  -909.526594167     A.U. after   23 cycles
 SCF Done:  E(UPBE1PBE) =  -909.533443638     A.U. after   21 cycles
 SCF Done:  E(UPBE1PBE) =  -909.534035782     A.U. after   23 cycles
 SCF Done:  E(UPBE1PBE) =  -909.535123648     A.U. after   19 cycles
 SCF Done:  E(UPBE1PBE) =  -909.535612235     A.U. after   20 cycles
 SCF Done:  E(UPBE1PBE) =  -909.535774533     A.U. after   20 cycles
 SCF Done:  E(UPBE1PBE) =  -909.535864824     A.U. after   17 cycles
 SCF Done:  E(UPBE1PBE) =  -909.535878064     A.U. after   17 cycles
 SCF Done:  E(UPBE1PBE) =  -909.535891175     A.U. after   17 cycles
 SCF Done:  E(UPBE1PBE) =  -909.535893310     A.U. after   16 cycles
 SCF Done:  E(UPBE1PBE) =  -909.535894114     A.U. after   14 cycles
 SCF Done:  E(UPBE1PBE) =  -909.535894295     A.U. after   13 cycles
 SCF Done:  E(UPBE1PBE) =  -909.535894351     A.U. after   12 cycles
 Optimization completed.
    -- Stationary point found.
 Normal termination of Gaussian 16 at Sun Oct 27 19:45:57 2024.

 ----------------------------------------------------------------------
 #N Geom=AllCheck Guess=TCheck SCRF=Check GenChk UPBE1PBE/Aug-CC-pVDZ F
 req
 ----------------------------------------------------------------------

 Structure from the checkpoint file:  "/scr/Gau-32839.chk"
 ----
 blah
 ----
 Charge =  0 Multiplicity = 2

                         Standard orientation:
 ---------------------------------------------------------------------
 Center     Atomic      Atomic             Coordinates (Angstroms)
 Number     Number       Type             X           Y           Z
 ---------------------------------------------------------------------
      1          6           0        2.695124    0.624612    0.106965
      2          6           0        1.275225    0.884054    0.632493
      3          6           0        0.462230    0.269438   -0.558496
      4          8           0        1.078884    2.235218    0.842527
      5          1           0        1.090147    0.276985    1.535152
      6          8           0        1.162293   -0.906651   -0.885139
      7          1           0        0.514646    1.027230   -1.366538
      8          6           0       -0.950323   -0.014830   -0.275787
      9          6           0        2.576779   -0.686735   -0.669814
     10          1           0        3.404884    0.544651    0.945875
     11          8           0        3.062418    1.647351   -0.784479
     12          6           0        3.133113   -1.905492    0.033757
     13          1           0        3.069261   -0.562572   -1.645630
     14          8           0        2.583519   -2.085481    1.324419
     15          1           0        4.215361   -1.777937    0.165794
     16          1           0        2.971545   -2.794829   -0.598436
     17          1           0        2.682650    2.462553   -0.421339
     18          1           0        0.125917    2.427772    0.643733
     19          1           0        1.638194   -2.227325    1.215189
     20          6           0       -1.436565   -1.324392   -0.252318
     21          7           0       -2.729784   -1.509134   -0.078861
     22          6           0       -3.684827   -0.408795    0.033253
     23          7           0       -3.219749    0.837547    0.061389
     24          6           0       -1.901515    1.098281   -0.007931
     25          1           0       -0.785844   -2.185619   -0.398617
     26          1           0       -3.146929   -2.434417   -0.061863
     27          8           0       -4.847359   -0.789846    0.092976
     28          8           0       -1.433324    2.240381    0.141727
 ---------------------------------------------------------------------

 SCF Done:  E(UPBE1PBE) =  -909.535894351     A.U. after    1 cycles

 The electronic state is 2-A.
 Alpha  occ. eigenvalues --  -19.28055 -19.25516 -19.24300 -19.23900 -19.23899
 Alpha  occ. eigenvalues --  -19.21927 -14.53222 -14.40346 -10.39238 -10.37106
 Alpha  occ. eigenvalues --  -10.36416 -10.33742 -10.33463 -10.32209 -10.31340
 Alpha  occ. eigenvalues --  -10.30861 -10.30577  -1.13663  -1.13262  -1.09732
 Alpha  occ. eigenvalues --   -1.08768  -1.08444  -1.06390  -1.05679  -0.95384
 Alpha  occ. eigenvalues --   -0.89216  -0.82634  -0.80779  -0.74862  -0.70730
 Alpha  occ. eigenvalues --   -0.69455  -0.66824  -0.64762  -0.63268  -0.59969
 Alpha  occ. eigenvalues --   -0.58016  -0.56509  -0.55246  -0.54142  -0.53592
 Alpha  occ. eigenvalues --   -0.53009  -0.52150  -0.50624  -0.48743  -0.47699
 Alpha  occ. eigenvalues --   -0.47296  -0.45693  -0.44756  -0.44077  -0.43553
 Alpha  occ. eigenvalues --   -0.42747  -0.41912  -0.39572  -0.38255  -0.36313
 Alpha  occ. eigenvalues --   -0.33634  -0.33386  -0.32116  -0.31659  -0.31410
 Alpha  occ. eigenvalues --   -0.31137  -0.29757  -0.29688  -0.28902
 Alpha virt. eigenvalues --   -0.08321  -0.03719  -0.02483  -0.00954  -0.00367
 Alpha virt. eigenvalues --    0.00217   0.00884   0.01818   0.02483   0.02936
 Alpha virt. eigenvalues --    0.03254   0.04456   0.05072   0.05285   0.05731

  Beta  occ. eigenvalues --  -19.28047 -19.25515 -19.24261 -19.23855 -19.23303
  Beta  occ. eigenvalues --  -19.21858 -14.52604 -14.40288 -10.39365 -10.37061
  Beta  occ. eigenvalues --  -10.36497 -10.33745 -10.32795 -10.32087 -10.31340
  Beta  occ. eigenvalues --  -10.30844 -10.30577  -1.13462  -1.12495  -1.09603
  Beta  occ. eigenvalues --   -1.08585  -1.08423  -1.06266  -1.04543  -0.95106
  Beta  occ. eigenvalues --   -0.87866  -0.82492  -0.80226  -0.74549  -0.70425
  Beta  occ. eigenvalues --   -0.69237  -0.66639  -0.64454  -0.62953  -0.59685
  Beta  occ. eigenvalues --   -0.57675  -0.56346  -0.55017  -0.54085  -0.53268
  Beta  occ. eigenvalues --   -0.52110  -0.50990  -0.50384  -0.48358  -0.47381
  Beta  occ. eigenvalues --   -0.46949  -0.45433  -0.44172  -0.43759  -0.42847
  Beta  occ. eigenvalues --   -0.42103  -0.40143  -0.39351  -0.38048  -0.36080
  Beta  occ. eigenvalues --   -0.33086  -0.32795  -0.31684  -0.31186  -0.30982
  Beta  occ. eigenvalues --   -0.30556  -0.29215  -0.28102
  Beta virt. eigenvalues --   -0.20584  -0.06062  -0.03660  -0.01275  -0.00892
  Beta virt. eigenvalues --   -0.00314   0.00312   0.00955   0.01863   0.02531
  Beta virt. eigenvalues --    0.02972   0.03284   0.04504   0.05129   0.05333

 Mulliken charges and spin densities:
               1          2
     1  C    0.931540   0.010445
     2  C    0.802123   0.074428
     3  C    0.763099  -0.094612
     4  O   -0.684092   0.015182
     5  H   -0.514317  -0.005420
     6  O   -0.785666   0.006223
     7  H   -0.325317   0.038890
     8  C    0.619566   0.680015
     9  C    1.004564   0.000329
    10  H   -0.386806   0.008708
    11  O   -0.683412   0.012020
    12  C    1.045106  -0.000387
    13  H   -0.498527   0.000344
    14  O   -0.476840   0.000702
    15  H   -0.252992  -0.000045
    16  H   -0.257376  -0.000099
    17  H    0.173975  -0.000606
    18  H    0.255628   0.000371
    19  H    0.132396   0.000684
    20  C    1.284442  -0.159649
    21  N   -0.542276   0.313089
    22  C    0.714459  -0.081567
    23  N   -0.552346   0.030920
    24  C    0.386588  -0.069717
    25  H   -0.696149  -0.009568
    26  H   -0.044241  -0.019606
    27  O   -0.570593   0.224053
    28  O   -0.842536   0.024871
 Sum of Mulliken charges =  -0.00000   1.00000

 Dipole moment (field-independent basis, Debye):
    X=              3.5343    Y=             -6.7347    Z=             -1.3150  Tot=              7.7186
 Quadrupole moment (field-independent basis, Debye-Ang):
   XX=           -126.1530   YY=            -97.8208   ZZ=           -100.6608
   XY=             10.6903   XZ=             -0.1921   YZ=              1.3849

  Exact polarizability:     289.825      32.219     154.624      -5.744       2.407      99.369
 Approx polarizability:     379.451      67.641     243.334      -8.117       4.528     154.112

                      1                      2                      3
                      A                      A                      A
 Frequencies --     36.3160                42.6823                63.2960
 Red. masses --      6.9555                 9.1257                 6.1747
 Frc consts  --      0.0054                 0.0098                 0.0146
 IR Inten    --      7.1841                 0.1034                10.2229

                      4                      5                      6
                      A                      A                      A
 Frequencies --     86.6803               117.8453               161.8395
 Red. masses --      8.2243                 4.4271                 7.0102
 Frc consts  --      0.0364                 0.0362                 0.1082
 IR Inten    --      5.7608                 4.1667                 7.7568

                      7                      8                      9
                      A                      A                      A
 Frequencies --    172.2844               183.5898               233.0410
 Red. masses --      8.9897                 6.6427                 4.4038
 Frc consts  --      0.1572                 0.1319                 0.1409
 IR Inten    --      1.7256                 1.2165                21.9809

                     10                     11                     12
                      A                      A                      A
 Frequencies --    247.1856               280.2171               301.7596
 Red. masses --      4.0096                 4.4223                 2.4152
 Frc consts  --      0.1443                 0.2046                 0.1296
 IR Inten    --     16.4099                20.7489                29.9431

                     13                     14                     15
                      A                      A                      A
 Frequencies --    313.5961               346.7551               353.4071
 Red. masses --      3.6444                 2.5001                 4.0716
 Frc consts  --      0.2112                 0.1771                 0.2996
 IR Inten    --      4.4904                67.3308                15.9819

                     16                     17                     18
                      A                      A                      A
 Frequencies --    386.2517               423.3831               463.7054
 Red. masses --      2.5955                 8.4781                 3.3523
 Frc consts  --      0.2281                 0.8954                 0.4247
 IR Inten    --     68.2861                15.0867                 1.7149

                     19                     20                     21
                      A                      A                      A
 Frequencies --    504.7898               526.8857               548.9169
 Red. masses --      1.2745                 6.0783                 6.3781
 Frc consts  --      0.1913                 0.9942                 1.1323
 IR Inten    --    174.5862                48.6151                 5.3015

                     22                     23                     24
                      A                      A                      A
 Frequencies --    553.3268               617.0756               637.8206
 Red. masses --      8.3831                 5.5580                 5.4986
 Frc consts  --      1.5122                 1.2469                 1.3179
 IR Inten    --      3.6845                54.4639                 7.1993

                     25                     26                     27
                      A                      A                      A
 Frequencies --    660.9382               699.7692               723.0252
 Red. masses --      1.6441                 5.3931                 5.4171
 Frc consts  --      0.4231                 1.5559                 1.6685
 IR Inten    --     39.9754                19.4272                21.1647

                     28                     29                     30
                      A                      A                      A
 Frequencies --    740.6972               771.8748               775.3530
 Red. masses --      3.8379                 1.4530                 8.5511
 Frc consts  --      1.2406                 0.5101                 3.0288
 IR Inten    --     56.5981                28.4203                23.1795

                     31                     32                     33
                      A                      A                      A
 Frequencies --    787.1026               868.5425               896.1300
 Red. masses --      2.5760                 3.8715                 3.4028
 Frc consts  --      0.9403                 1.7207                 1.6100
 IR Inten    --     38.5652                 2.0706                50.3086

                     34                     35                     36
                      A                      A                      A
 Frequencies --    905.4023               914.2059               934.6777
 Red. masses --      2.8316                 3.2585                 2.7494
 Frc consts  --      1.3676                 1.6046                 1.4152
 IR Inten    --      1.7712                 9.8589                17.2312

                     37                     38                     39
                      A                      A                      A
 Frequencies --    968.8038               989.2766              1029.0642
 Red. masses --      1.8640                 2.6154                 2.8127
 Frc consts  --      1.0308                 1.5081                 1.7549
 IR Inten    --     29.3026                26.8191                58.1495

                     40                     41                     42
                      A                      A                      A
 Frequencies --   1077.2908              1092.6383              1125.7973
 Red. masses --      3.6635                 2.0943                 2.6284
 Frc consts  --      2.5050                 1.4731                 1.9627
 IR Inten    --    169.0709                88.8377               105.5774

                     43                     44                     45
                      A                      A                      A
 Frequencies --   1140.7379              1159.1219              1177.8232
 Red. masses --      3.4218                 4.0734                 2.0205
 Frc consts  --      2.6234                 3.2245                 1.6515
 IR Inten    --     20.6475               104.0169                74.5898

                     46                     47                     48
                      A                      A                      A
 Frequencies --   1188.2727              1202.9408              1217.4795
 Red. masses --      1.3626                 1.8365                 1.3382
 Frc consts  --      1.1336                 1.5658                 1.1687
 IR Inten    --      5.4555               117.8623                50.9815

                     49                     50                     51
                      A                      A                      A
 Frequencies --   1231.2389              1259.6117              1272.4854
 Red. masses --      1.2076                 1.4424                 1.2956
 Frc consts  --      1.0786                 1.3484                 1.2361
 IR Inten    --     41.2085                48.8976                18.6811

                     52                     53                     54
                      A                      A                      A
 Frequencies --   1303.7033              1330.7874              1335.6728
 Red. masses --      1.4076                 1.8955                 1.4082
 Frc consts  --      1.4096                 1.9779                 1.4802
 IR Inten    --      2.2561                 4.6257                68.1076

                     55                     56                     57
                      A                      A                      A
 Frequencies --   1345.9163              1359.6662              1375.3347
 Red. masses --      1.3363                 1.3764                 1.3625
 Frc consts  --      1.4262                 1.4992                 1.5185
 IR Inten    --     12.7180                39.4627               134.7767

                     58                     59                     60
                      A                      A                      A
 Frequencies --   1395.4114              1407.1332              1410.7025
 Red. masses --      2.4725                 1.8897                 2.7006
 Frc consts  --      2.8366                 2.2045                 3.1665
 IR Inten    --     15.9239                24.1001                15.7335

                     61                     62                     63
                      A                      A                      A
 Frequencies --   1431.5968              1470.4924              1474.5270
 Red. masses --      2.1576                 1.3180                 1.1111
 Frc consts  --      2.6053                 1.6791                 1.4233
 IR Inten    --      8.1904               221.2743                37.5790

                     64                     65                     66
                      A                      A                      A
 Frequencies --   1520.1680              1579.3613              1611.9250
 Red. masses --      3.5163                 5.9855                 7.3902
 Frc consts  --      4.7876                 8.7966                11.3135
 IR Inten    --     44.0994               209.5345               133.3030

                     67                     68                     69
                      A                      A                      A
 Frequencies --   1733.2837              2977.8370              3035.0159
 Red. masses --     10.2486                 1.0779                 1.0814
 Frc consts  --     18.1407                 5.6315                 5.8689
 IR Inten    --     15.0148                28.4655                34.1628

                     70                     71                     72
                      A                      A                      A
 Frequencies --   3036.8718              3057.2020              3082.9533
 Red. masses --      1.0704                 1.0866                 1.0865
 Frc consts  --      5.8166                 5.9835                 6.0845
 IR Inten    --     29.9936                31.2717                30.8240

                     73                     74                     75
                      A                      A                      A
 Frequencies --   3128.1036              3230.0347              3252.3326
 Red. masses --      1.0980                 1.0950                 1.0723
 Frc consts  --      6.3301                 6.7310                 6.6830
 IR Inten    --     12.2319                 0.8405               355.6043

                     76                     77                     78
                      A                      A                      A
 Frequencies --   3598.4736              3744.3419              3867.5200
 Red. masses --      1.0800                 1.0649                 1.0658
 Frc consts  --      8.2396                 8.7967                 9.3929
 IR Inten    --    112.4856                67.5700                18.0509

 - Thermochemistry -
 -------------------
 Temperature   298.150 Kelvin.  Pressure   1.00000 Atm.
 Atom     1 has atomic number  6 and mass  12.00000

 Molecular mass:   243.06171 amu.
 Principal axes and moments of inertia in atomic units:
                           1         2         3
     Eigenvalues --  2031.653715933.463117331.76609
           X            1.00000  -0.00230  -0.00033
           Y            0.00230   1.00000   0.00171
           Z            0.00032  -0.00171   1.00000
 This molecule is an asymmetric top.
 Rotational symmetry number  1.
 Warning -- assumption of classical behavior for rotation
           may cause significant error
 Rotational temperatures (Kelvin)      0.04263     0.01460     0.01181
 Rotational constants (GHZ):           0.88831     0.30416     0.24615
 Zero-point vibrational energy     559309.9 (Joules/Mol)
                                  133.67828 (Kcal/Mol)
 Warning -- explicit consideration of  23 degrees of freedom as
           vibrations may cause significant error
 Vibrational temperatures:     52.25    61.41    91.07   124.71   169.55
          (Kelvin)            232.85   247.88   264.14   335.29   355.64
                              403.17   434.16   451.19   498.90   508.47
                              555.73   609.15   667.17   726.28   758.07
                              789.77   796.11   887.83   917.68   950.94
                             1006.81  1040.27  1065.70  1110.56  1115.56
                             1132.47  1249.64  1289.33  1302.67  1315.34
                             1344.79  1393.89  1423.35  1480.59  1549.98
                             1572.06  1619.77  1641.27  1667.72  1694.62
                             1709.66  1730.76  1751.68  1771.48  1812.30
                             1830.82  1875.74  1914.71  1921.74  1936.47
                             1956.26  1978.80  2007.69  2024.55  2029.69
                             2059.75  2115.71  2121.52  2187.18  2272.35
                             2319.20  2493.81  4284.44  4366.71  4369.38
                             4398.63  4435.68  4500.64  4647.30  4679.38
                             5177.40  5387.27  5564.50

 Zero-point correction=                           0.213030 (Hartree/Particle)
 Thermal correction to Energy=                    0.228021
 Thermal correction to Enthalpy=                  0.228965
 Thermal correction to Gibbs Free Energy=         0.169427
 Sum of electronic and zero-point Energies=           -909.322864
 Sum of electronic and thermal Energies=              -909.307874
 Sum of electronic and thermal Enthalpies=            -909.306930
 Sum of electronic and thermal Free Energies=         -909.366467

                     E (Thermal)             CV                S
                      KCal/Mol        Cal/Mol-Kelvin    Cal/Mol-Kelvin
 Total                  143.085             57.247            125.307
 Electronic               0.000              0.000              1.377
 Translational            0.889              2.981             42.365
 Rotational               0.889              2.981             32.847
 Vibrational            141.308             51.285             48.718
 Vibration     1          0.594              1.982              5.451
 Vibration     2          0.595              1.980              5.131
 Vibration     3          0.597              1.972              4.352
 Vibration     4          0.601              1.958              3.734
 Vibration     5          0.608              1.935              3.135
 Vibration     6          0.622              1.889              2.528
 Vibration     7          0.626              1.877              2.410
 Vibration     8          0.631              1.862              2.292
 Vibration     9          0.654              1.790              1.855
 Vibration    10          0.661              1.767              1.751
 Vibration    11          0.680              1.710              1.532
 Vibration    12          0.694              1.670              1.407
 Vibration    13          0.701              1.648              1.343
 Vibration    14          0.725              1.582              1.181
 Vibration    15          0.730              1.568              1.151
 Vibration    16          0.755              1.500              1.015
 Vibration    17          0.786              1.419              0.881
 Vibration    18          0.821              1.331              0.755
 Vibration    19          0.860              1.239              0.646
 Vibration    20          0.882              1.190              0.594
 Vibration    21          0.904              1.142              0.546
 Vibration    22          0.909              1.132              0.537
 Vibration    23          0.977              0.996              0.421

 Optimization completed.
    -- Stationary point found.
 Normal termination of Gaussian 16 at Sun Oct 27 20:12:15 2024.
