 Gaussian 16, Revision C.01,
 Gaussian 16:  EM64L-G16RevC.01  3-Jul-2019

 ------------------------------------------------------
 # PBE1PBE/aug-cc-pVDZ opt freq EmpiricalDispersion=GD3
 ------------------------------------------------------

 ----
 blah
 ----
 Symbolic Z-matrix:
 Charge = -1 Multiplicity = 1

 SCF Done:  E(RPBE1PBE) =  -909.693721543     A.U. after   14 cycles
 SCF Done:  E(RPBE1PBE) =  -909.701753724     A.U. after   14 cycles
 SCF Done:  E(RPBE1PBE) =  -909.687413140     A.U. after   14 cycles
 SCF Done:  E(RPBE1PBE) =  -909.702147037     A.U. after   13 cycles
 SCF Done:  E(RPBE1PBE) =  -909.703637917     A.U. after   15 cycles
 SCF Done:  E(RPBE1PBE) =  -909.706348692     A.U. after   13 cycles
 SCF Done:  E(RPBE1PBE) =  -909.706647002     A.U. after   11 cycles
 SCF Done:  E(RPBE1PBE) =  -909.706762533     A.U. after   11 cycles
 SCF Done:  E(RPBE1PBE) =  -909.706851543     A.U. after   11 cycles
 SCF Done:  E(RPBE1PBE) =  -909.706881054     A.U. after   11 cycles
 SCF Done:  E(RPBE1PBE) =  -909.706895300     A.U. after   11 cycles
 SCF Done:  E(RPBE1PBE) =  -909.706906038     A.U. after   10 cycles
 SCF Done:  E(RPBE1PBE) =  -909.706911108     A.U. after   10 cycles
 SCF Done:  E(RPBE1PBE) =  -909.706912263     A.U. after    8 cycles
 SCF Done:  E(RPBE1PBE) =  -909.706912626     A.U. after    8 cycles
 SCF Done:  E(RPBE1PBE) =  -909.706912696     A.U. after    8 cycles
 SCF Done:  E(RPBE1PBE) =  -909.706912718     A.U. after    8 cycles
 Optimization completed.
    -- Stationary point found.
 Normal termination of Gaussian 16 at Sat Oct 26 23:35:56 2024.

 ----------------------------------------------------------------------
 #N Geom=AllCheck Guess=TCheck SCRF=Check GenChk RPBE1PBE/Aug-CC-pVDZ F
 req
 ----------------------------------------------------------------------

 Structure from the checkpoint file:  "/scr/Gau-20676.chk"
 ----
 blah
 ----
 Charge = -1 Multiplicity = 1

                         Standard orientation:
 ---------------------------------------------------------------------
 Center     Atomic      Atomic             Coordinates (Angstroms)
 Number     Number       Type             X           Y           Z
 ---------------------------------------------------------------------
      1          6           0        2.710856    0.627987    0.183195
      2          6           0        1.251640    0.934422    0.549914
      3          6           0        0.484083    0.238839   -0.586322
      4          8           0        1.059190    2.320611    0.615941
      5          1           0        0.994133    0.437125    1.501455
      6          8           0        1.216734   -0.967900   -0.783554
      7          1           0        0.589354    0.882093   -1.483433
      8          6           0       -0.961130   -0.054247   -0.325711
      9          6           0        2.608312   -0.689914   -0.601154
     10          1           0        3.340614    0.511250    1.079784
     11          8           0        3.225880    1.656061   -0.640220
     12          6           0        3.197182   -1.902746    0.092473
     13          1           0        3.098151   -0.543450   -1.579009
     14          8           0        2.551996   -2.164290    1.322505
     15          1           0        4.260121   -1.726247    0.309054
     16          1           0        3.122296   -2.774404   -0.582620
     17          1           0        2.643368    2.413203   -0.452991
     18          1           0        0.085496    2.458665    0.433877
     19          1           0        1.605465   -2.103420    1.134308
     20          6           0       -1.540636   -1.313966   -0.434466
     21          7           0       -2.823093   -1.637664   -0.259519
     22          6           0       -3.685451   -0.628750    0.048301
     23          7           0       -3.141769    0.665280    0.152785
     24          6           0       -1.826902    1.027363   -0.004629
     25          1           0       -0.883385   -2.149275   -0.695554
     26          1           0       -3.792873    1.401830    0.391045
     27          8           0       -4.897389   -0.760732    0.240865
     28          8           0       -1.498465    2.236923    0.139666
 ---------------------------------------------------------------------

 SCF Done:  E(RPBE1PBE) =  -909.706912718     A.U. after    1 cycles

 The electronic state is 1-A.
 Alpha  occ. eigenvalues --  -19.14032 -19.13590 -19.11955 -19.10770 -19.07398
 Alpha  occ. eigenvalues --  -19.04223 -14.30801 -14.24128 -10.21220 -10.21187
 Alpha  occ. eigenvalues --  -10.19101 -10.18827 -10.18175 -10.18081 -10.17544
 Alpha  occ. eigenvalues --  -10.14955 -10.10529  -0.99692  -0.96795  -0.95766
 Alpha  occ. eigenvalues --   -0.95274  -0.93264  -0.92129  -0.83497  -0.78498
 Alpha  occ. eigenvalues --   -0.71232  -0.69034  -0.65114  -0.58880  -0.55012
 Alpha  occ. eigenvalues --   -0.53757  -0.50770  -0.50344  -0.44942  -0.43969
 Alpha  occ. eigenvalues --   -0.42583  -0.42097  -0.41437  -0.40019  -0.38043
 Alpha  occ. eigenvalues --   -0.37052  -0.35305  -0.34659  -0.34122  -0.32860
 Alpha  occ. eigenvalues --   -0.31424  -0.30322  -0.30265  -0.29596  -0.27754
 Alpha  occ. eigenvalues --   -0.27158  -0.26365  -0.26026  -0.22921  -0.21114
 Alpha  occ. eigenvalues --   -0.20253  -0.18884  -0.18587  -0.17854  -0.16673
 Alpha  occ. eigenvalues --   -0.16065  -0.14584  -0.13441  -0.08977
 Alpha virt. eigenvalues --    0.07884   0.09320   0.09527   0.10016   0.10620
 Alpha virt. eigenvalues --    0.11099   0.11627   0.12093   0.12520   0.13040
 Alpha virt. eigenvalues --    0.13594   0.14677   0.15568   0.15768   0.15956

 Mulliken charges:
               1
     1  C    0.928051
     2  C    0.753436
     3  C    0.695446
     4  O   -0.733975
     5  H   -0.551828
     6  O   -0.767949
     7  H   -0.375253
     8  C    0.836290
     9  C    0.967899
    10  H   -0.395205
    11  O   -0.721676
    12  C    1.133469
    13  H   -0.551402
    14  O   -0.545454
    15  H   -0.266067
    16  H   -0.266037
    17  H    0.183343
    18  H    0.266731
    19  H    0.195508
    20  C    0.674871
    21  N   -0.661294
    22  C    0.661567
    23  N   -0.397660
    24  C    0.556770
    25  H   -0.762270
    26  H   -0.106371
    27  O   -0.717771
    28  O   -1.033167
 Sum of Mulliken charges =  -1.00000

 Dipole moment (field-independent basis, Debye):
    X=              8.1219    Y=              0.6377    Z=             -0.8313  Tot=              8.1892
 Quadrupole moment (field-independent basis, Debye-Ang):
   XX=           -167.1246   YY=           -124.2221   ZZ=           -105.7441
   XY=            -17.7660   XZ=             -1.3865   YZ=              1.7045

  Exact polarizability:     200.769       8.296     158.289      -7.261       3.213     107.861
 Approx polarizability:     253.191      18.074     240.849     -11.993       5.512     165.205

                      1                      2                      3
                      A                      A                      A
 Frequencies --     30.8349                44.1721                65.8221
 Red. masses --      6.7447                 9.0496                 7.2691
 Frc consts  --      0.0038                 0.0104                 0.0186
 IR Inten    --      0.2622                 0.9612                 1.7581

                      4                      5                      6
                      A                      A                      A
 Frequencies --     91.8315               125.8138               155.5191
 Red. masses --      8.2415                 4.9911                 6.3812
 Frc consts  --      0.0409                 0.0465                 0.0909
 IR Inten    --      1.5228                 2.3010                 2.0360

                      7                      8                      9
                      A                      A                      A
 Frequencies --    183.9621               197.9052               242.7080
 Red. masses --      8.4562                 7.9315                 4.4820
 Frc consts  --      0.1686                 0.1830                 0.1556
 IR Inten    --      6.0542                 1.3141                 6.7075

                     10                     11                     12
                      A                      A                      A
 Frequencies --    256.6048               286.0384               324.2185
 Red. masses --      5.1796                 7.4557                 3.4489
 Frc consts  --      0.2009                 0.3594                 0.2136
 IR Inten    --     21.1459                 6.5902                 3.7430

                     13                     14                     15
                      A                      A                      A
 Frequencies --    346.5459               370.7913               430.9696
 Red. masses --      6.2231                 5.5255                 7.8066
 Frc consts  --      0.4403                 0.4476                 0.8543
 IR Inten    --      4.9740                18.1475                27.9596

                     16                     17                     18
                      A                      A                      A
 Frequencies --    438.0466               454.5835               503.4269
 Red. masses --      3.5438                 2.8621                 1.1907
 Frc consts  --      0.4006                 0.3485                 0.1778
 IR Inten    --     20.9358                 7.6801                86.3708

                     19                     20                     21
                      A                      A                      A
 Frequencies --    539.8772               556.2010               562.5088
 Red. masses --      6.0335                 1.1287                 7.0569
 Frc consts  --      1.0361                 0.2057                 1.3156
 IR Inten    --     20.1881                82.5895                 9.1308

                     22                     23                     24
                      A                      A                      A
 Frequencies --    594.7497               616.4204               659.9105
 Red. masses --      6.8694                 5.6685                 6.7445
 Frc consts  --      1.4316                 1.2690                 1.7305
 IR Inten    --      9.8926                12.4829                13.1826

                     25                     26                     27
                      A                      A                      A
 Frequencies --    700.1445               728.5306               731.1707
 Red. masses --      1.1567                 5.7028                 4.4991
 Frc consts  --      0.3341                 1.7833                 1.4172
 IR Inten    --     49.2425                12.9783                17.1356

                     28                     29                     30
                      A                      A                      A
 Frequencies --    777.9818               808.9197               814.3868
 Red. masses --      9.4812                10.2062                 8.5663
 Frc consts  --      3.3811                 3.9348                 3.3474
 IR Inten    --      0.9787                31.4278                 6.0901

                     31                     32                     33
                      A                      A                      A
 Frequencies --    882.3988               890.2652               911.8632
 Red. masses --      2.8228                 1.3011                 2.8723
 Frc consts  --      1.2950                 0.6076                 1.4071
 IR Inten    --     13.8315                28.9622                 5.7602

                     34                     35                     36
                      A                      A                      A
 Frequencies --    926.4414               944.9477               990.2754
 Red. masses --      2.2959                 2.3438                 2.9010
 Frc consts  --      1.1610                 1.2330                 1.6761
 IR Inten    --     20.9100                39.4505                 9.4155

                     37                     38                     39
                      A                      A                      A
 Frequencies --   1000.0687              1041.0756              1082.4086
 Red. masses --      1.4641                 3.1718                 3.9638
 Frc consts  --      0.8627                 2.0255                 2.7362
 IR Inten    --      4.2004                14.1991                46.1630

                     40                     41                     42
                      A                      A                      A
 Frequencies --   1086.5344              1104.7297              1130.7993
 Red. masses --      4.3201                 1.8069                 3.3684
 Frc consts  --      3.0049                 1.2993                 2.5378
 IR Inten    --     46.4951                56.5794                73.3861

                     43                     44                     45
                      A                      A                      A
 Frequencies --   1159.4325              1167.4752              1195.7313
 Red. masses --      3.6526                 3.0832                 4.2535
 Frc consts  --      2.8930                 2.4760                 3.5831
 IR Inten    --     95.5736                57.8675                 7.3109

                     46                     47                     48
                      A                      A                      A
 Frequencies --   1219.5930              1225.3091              1228.4869
 Red. masses --      1.2798                 1.3546                 2.2769
 Frc consts  --      1.1216                 1.1983                 2.0245
 IR Inten    --     28.3828                21.6851                 8.6500

                     49                     50                     51
                      A                      A                      A
 Frequencies --   1276.3979              1297.6267              1299.7302
 Red. masses --      1.2759                 1.4202                 1.2543
 Frc consts  --      1.2247                 1.4090                 1.2484
 IR Inten    --     10.2493                23.4684                10.4422

                     52                     53                     54
                      A                      A                      A
 Frequencies --   1328.8423              1335.1464              1347.9194
 Red. masses --      1.4686                 1.5607                 1.3617
 Frc consts  --      1.5279                 1.6392                 1.4577
 IR Inten    --    103.4683               140.4206                 1.8921

                     55                     56                     57
                      A                      A                      A
 Frequencies --   1350.5285              1362.8818              1380.9715
 Red. masses --      2.6262                 1.4593                 1.6616
 Frc consts  --      2.8222                 1.5970                 1.8671
 IR Inten    --     56.4368                 3.0360                19.5794

                     58                     59                     60
                      A                      A                      A
 Frequencies --   1390.5574              1409.9106              1423.9729
 Red. masses --      1.4641                 2.3103                 1.3559
 Frc consts  --      1.6680                 2.7058                 1.6199
 IR Inten    --     23.3132                25.2619               115.2003

                     61                     62                     63
                      A                      A                      A
 Frequencies --   1432.2025              1478.4164              1506.2449
 Red. masses --      1.7876                 1.0898                 3.2541
 Frc consts  --      2.1604                 1.4034                 4.3498
 IR Inten    --     44.8255                 2.6697               132.3866

                     64                     65                     66
                      A                      A                      A
 Frequencies --   1536.5622              1638.6941              1659.2649
 Red. masses --      1.6897                 6.6223                 5.4133
 Frc consts  --      2.3505                10.4775                 8.7809
 IR Inten    --    238.9300               192.4582               690.0469

                     67                     68                     69
                      A                      A                      A
 Frequencies --   1732.2662              2962.6867              3008.1903
 Red. masses --      9.6281                 1.0813                 1.0685
 Frc consts  --     17.0223                 5.5921                 5.6967
 IR Inten    --   1055.6920                38.4057                55.1559

                     70                     71                     72
                      A                      A                      A
 Frequencies --   3019.2067              3036.9776              3045.0806
 Red. masses --      1.0843                 1.0850                 1.0867
 Frc consts  --      5.8234                 5.8962                 5.9367
 IR Inten    --     27.5096                86.7477                90.6087

                     73                     74                     75
                      A                      A                      A
 Frequencies --   3103.3272              3117.5036              3153.1877
 Red. masses --      1.0958                 1.0746                 1.0891
 Frc consts  --      6.2179                 6.1533                 6.3801
 IR Inten    --     23.8436              1193.3122                45.5604

                     76                     77                     78
                      A                      A                      A
 Frequencies --   3637.4336              3663.4300              3791.5232
 Red. masses --      1.0770                 1.0649                 1.0653
 Frc consts  --      8.3960                 8.4207                 9.0234
 IR Inten    --     26.5138               105.8275                72.6239

 - Thermochemistry -
 -------------------
 Temperature   298.150 Kelvin.  Pressure   1.00000 Atm.
 Atom     1 has atomic number  6 and mass  12.00000

 Molecular mass:   243.06171 amu.
 Principal axes and moments of inertia in atomic units:
                           1         2         3
     Eigenvalues --  2040.349296045.645417514.36107
           X            0.99991  -0.01355  -0.00093
           Y            0.01355   0.99990   0.00356
           Z            0.00088  -0.00357   0.99999
 This molecule is an asymmetric top.
 Rotational symmetry number  1.
 Warning -- assumption of classical behavior for rotation
           may cause significant error
 Rotational temperatures (Kelvin)      0.04245     0.01433     0.01153
 Rotational constants (GHZ):           0.88453     0.29852     0.24017
 Zero-point vibrational energy     565565.2 (Joules/Mol)
                                  135.17332 (Kcal/Mol)
 Warning -- explicit consideration of  23 degrees of freedom as
           vibrations may cause significant error
 Vibrational temperatures:     44.36    63.55    94.70   132.13   181.02
          (Kelvin)            223.76   264.68   284.74   349.20   369.20
                              411.55   466.48   498.60   533.49   620.07
                              630.25   654.04   724.32   776.76   800.25
                              809.32   855.71   886.89   949.46  1007.35
                             1048.19  1051.99  1119.34  1163.85  1171.72
                             1269.58  1280.89  1311.97  1332.94  1359.57
                             1424.79  1438.88  1497.88  1557.34  1563.28
                             1589.46  1626.97  1668.16  1679.74  1720.39
                             1754.72  1762.95  1767.52  1836.45  1867.00
                             1870.02  1911.91  1920.98  1939.36  1943.11
                             1960.88  1986.91  2000.70  2028.55  2048.78
                             2060.62  2127.11  2167.15  2210.77  2357.72
                             2387.31  2492.34  4262.65  4328.11  4343.96
                             4369.53  4381.19  4465.00  4485.39  4536.73
                             5233.46  5270.86  5455.16

 Zero-point correction=                           0.215412 (Hartree/Particle)
 Thermal correction to Energy=                    0.229798
 Thermal correction to Enthalpy=                  0.230742
 Thermal correction to Gibbs Free Energy=         0.172880
 Sum of electronic and zero-point Energies=           -909.491500
 Sum of electronic and thermal Energies=              -909.477115
 Sum of electronic and thermal Enthalpies=            -909.476171
 Sum of electronic and thermal Free Energies=         -909.534033

                     E (Thermal)             CV                S
                      KCal/Mol        Cal/Mol-Kelvin    Cal/Mol-Kelvin
 Total                  144.200             55.240            121.781
 Electronic               0.000              0.000              0.000
 Translational            0.889              2.981             42.365
 Rotational               0.889              2.981             32.894
 Vibrational            142.423             49.278             46.522
 Vibration     1          0.594              1.984              5.775
 Vibration     2          0.595              1.980              5.063
 Vibration     3          0.597              1.971              4.275
 Vibration     4          0.602              1.955              3.621
 Vibration     5          0.611              1.927              3.009
 Vibration     6          0.620              1.897              2.604
 Vibration     7          0.631              1.862              2.288
 Vibration     8          0.637              1.843              2.152
 Vibration     9          0.659              1.775              1.783
 Vibration    10          0.666              1.752              1.685
 Vibration    11          0.684              1.700              1.497
 Vibration    12          0.709              1.627              1.289
 Vibration    13          0.725              1.582              1.182
 Vibration    14          0.743              1.532              1.077
 Vibration    15          0.792              1.403              0.855
 Vibration    16          0.798              1.387              0.833
 Vibration    17          0.813              1.351              0.782
 Vibration    18          0.859              1.242              0.650
 Vibration    19          0.895              1.162              0.566
 Vibration    20          0.912              1.126              0.531
 Vibration    21          0.918              1.112              0.519
 Vibration    22          0.952              1.043              0.459
 Vibration    23          0.976              0.997              0.422

                           ! Non-Optimized Parameters !
 Normal termination of Gaussian 16 at Sat Oct 26 23:50:31 2024.
