 Gaussian 16, Revision C.01,
 Gaussian 16:  EM64L-G16RevC.01  3-Jul-2019

 ------------------------------------------------------
 # PBE1PBE/aug-cc-pVDZ opt freq EmpiricalDispersion=GD3
 ------------------------------------------------------

 ----
 blah
 ----
 Symbolic Z-matrix:
 Charge =  0 Multiplicity = 2

 SCF Done:  E(UPBE1PBE) =  -909.559132861     A.U. after   20 cycles
 SCF Done:  E(UPBE1PBE) =  -909.563159357     A.U. after   19 cycles
 SCF Done:  E(UPBE1PBE) =  -909.564575470     A.U. after   19 cycles
 SCF Done:  E(UPBE1PBE) =  -909.566718111     A.U. after   15 cycles
 SCF Done:  E(UPBE1PBE) =  -909.567326818     A.U. after   16 cycles
 SCF Done:  E(UPBE1PBE) =  -909.567528763     A.U. after   15 cycles
 SCF Done:  E(UPBE1PBE) =  -909.567726587     A.U. after   16 cycles
 SCF Done:  E(UPBE1PBE) =  -909.567857123     A.U. after   14 cycles
 SCF Done:  E(UPBE1PBE) =  -909.567875337     A.U. after   15 cycles
 SCF Done:  E(UPBE1PBE) =  -909.567917662     A.U. after   14 cycles
 SCF Done:  E(UPBE1PBE) =  -909.567920844     A.U. after   12 cycles
 SCF Done:  E(UPBE1PBE) =  -909.567922003     A.U. after   11 cycles
 SCF Done:  E(UPBE1PBE) =  -909.567922220     A.U. after   11 cycles
 Optimization completed.
    -- Stationary point found.
 Normal termination of Gaussian 16 at Sun Oct 27 20:57:09 2024.

 ----------------------------------------------------------------------
 #N Geom=AllCheck Guess=TCheck SCRF=Check GenChk UPBE1PBE/Aug-CC-pVDZ F
 req
 ----------------------------------------------------------------------

 Structure from the checkpoint file:  "/scr/Gau-1779.chk"
 ----
 blah
 ----
 Charge =  0 Multiplicity = 2

                         Standard orientation:
 ---------------------------------------------------------------------
 Center     Atomic      Atomic             Coordinates (Angstroms)
 Number     Number       Type             X           Y           Z
 ---------------------------------------------------------------------
      1          6           0        2.716821    0.592778    0.150603
      2          6           0        1.281628    0.885583    0.606081
      3          6           0        0.498341    0.292499   -0.599861
      4          8           0        1.124716    2.255559    0.812129
      5          1           0        1.052135    0.297316    1.509669
      6          8           0        1.194456   -0.885290   -0.929338
      7          1           0        0.565427    1.045277   -1.411577
      8          6           0       -0.929641   -0.011483   -0.349891
      9          6           0        2.595986   -0.719718   -0.621242
     10          1           0        3.389934    0.501050    1.017502
     11          8           0        3.153357    1.596662   -0.735284
     12          6           0        3.051705   -1.952184    0.131757
     13          1           0        3.159894   -0.627648   -1.561432
     14          8           0        2.389694   -2.102634    1.372229
     15          1           0        4.123463   -1.860863    0.352047
     16          1           0        2.911360   -2.839612   -0.507410
     17          1           0        2.800705    2.429653   -0.389606
     18          1           0        0.196370    2.489802    0.620188
     19          1           0        1.461954   -2.274796    1.182171
     20          6           0       -1.467167   -1.315343   -0.416355
     21          7           0       -2.730343   -1.628253   -0.232291
     22          6           0       -3.633159   -0.604181    0.049336
     23          7           0       -3.144306    0.704170    0.124105
     24          6           0       -1.841567    1.087638   -0.034418
     25          1           0       -0.788662   -2.136920   -0.652829
     26          1           0       -3.820374    1.425897    0.349351
     27          8           0       -4.814859   -0.815467    0.231177
     28          8           0       -1.493282    2.261907    0.093234
 ---------------------------------------------------------------------

 SCF Done:  E(UPBE1PBE) =  -909.567922221     A.U. after    1 cycles

 The electronic state is 2-A.
 Alpha  occ. eigenvalues --  -19.27154 -19.25804 -19.24799 -19.24674 -19.24473
 Alpha  occ. eigenvalues --  -19.24002 -14.48557 -14.45490 -10.39962 -10.39745
 Alpha  occ. eigenvalues --  -10.33291 -10.33068 -10.32673 -10.31783 -10.30703
 Alpha  occ. eigenvalues --  -10.30485 -10.29910  -1.14622  -1.12876  -1.12370
 Alpha  occ. eigenvalues --   -1.09247  -1.07725  -1.06509  -1.02953  -0.98037
 Alpha  occ. eigenvalues --   -0.88270  -0.82298  -0.79881  -0.73654  -0.72448
 Alpha  occ. eigenvalues --   -0.69553  -0.66155  -0.63991  -0.61033  -0.59335
 Alpha  occ. eigenvalues --   -0.57959  -0.56069  -0.54927  -0.53808  -0.53223
 Alpha  occ. eigenvalues --   -0.52815  -0.52013  -0.50109  -0.48395  -0.48074
 Alpha  occ. eigenvalues --   -0.47064  -0.46812  -0.46043  -0.43692  -0.43438
 Alpha  occ. eigenvalues --   -0.41818  -0.40618  -0.39345  -0.37732  -0.36079
 Alpha  occ. eigenvalues --   -0.35298  -0.34691  -0.33271  -0.32922  -0.32239
 Alpha  occ. eigenvalues --   -0.31908  -0.31165  -0.30601  -0.28472
 Alpha virt. eigenvalues --   -0.07031  -0.03034  -0.01459  -0.00487   0.00244
 Alpha virt. eigenvalues --    0.00548   0.01252   0.02401   0.02700   0.03207
 Alpha virt. eigenvalues --    0.03467   0.03922   0.05173   0.05416   0.05695

  Beta  occ. eigenvalues --  -19.27152 -19.25519 -19.24798 -19.24655 -19.23980
  Beta  occ. eigenvalues --  -19.23962 -14.48574 -14.44740 -10.40099 -10.39828
  Beta  occ. eigenvalues --  -10.33338 -10.33325 -10.31811 -10.31676 -10.30704
  Beta  occ. eigenvalues --  -10.30472 -10.29910  -1.14142  -1.12722  -1.11768
  Beta  occ. eigenvalues --   -1.09190  -1.07719  -1.06456  -1.02133  -0.97331
  Beta  occ. eigenvalues --   -0.86792  -0.82187  -0.79363  -0.73547  -0.72315
  Beta  occ. eigenvalues --   -0.69274  -0.65973  -0.63841  -0.60676  -0.58995
  Beta  occ. eigenvalues --   -0.57626  -0.55905  -0.54708  -0.53720  -0.53077
  Beta  occ. eigenvalues --   -0.52096  -0.51589  -0.49909  -0.48107  -0.47710
  Beta  occ. eigenvalues --   -0.46707  -0.46162  -0.44815  -0.43514  -0.43240
  Beta  occ. eigenvalues --   -0.41497  -0.39391  -0.38368  -0.37418  -0.35803
  Beta  occ. eigenvalues --   -0.34774  -0.33093  -0.32713  -0.32412  -0.31795
  Beta  occ. eigenvalues --   -0.31221  -0.30994  -0.30046
  Beta virt. eigenvalues --   -0.18683  -0.05797  -0.01456  -0.01069  -0.00419
  Beta virt. eigenvalues --    0.00280   0.00589   0.01314   0.02451   0.02735
  Beta virt. eigenvalues --    0.03232   0.03499   0.03944   0.05184   0.05454

 Mulliken charges and spin densities:
               1          2
     1  C    0.979336   0.010498
     2  C    0.794731   0.058633
     3  C    0.807833  -0.116868
     4  O   -0.658441   0.006458
     5  H   -0.531774  -0.008543
     6  O   -0.756453   0.001950
     7  H   -0.320036   0.034124
     8  C    0.661039   0.885416
     9  C    0.982783  -0.000911
    10  H   -0.383693   0.005129
    11  O   -0.689433   0.006158
    12  C    1.021500  -0.000675
    13  H   -0.497675   0.000337
    14  O   -0.472502   0.000584
    15  H   -0.259449  -0.000042
    16  H   -0.253200  -0.000094
    17  H    0.165755  -0.000423
    18  H    0.193809  -0.000279
    19  H    0.137685   0.000856
    20  C    0.842334  -0.337739
    21  N   -0.585563   0.380246
    22  C    0.760817  -0.086309
    23  N   -0.387733  -0.005948
    24  C    0.581097  -0.123484
    25  H   -0.697011  -0.002793
    26  H   -0.049571  -0.000794
    27  O   -0.547699   0.192741
    28  O   -0.838487   0.101771
 Sum of Mulliken charges =  -0.00000   1.00000

 Dipole moment (field-independent basis, Debye):
    X=              1.7651    Y=              0.1428    Z=             -0.7723  Tot=              1.9320
 Quadrupole moment (field-independent basis, Debye-Ang):
   XX=           -115.1138   YY=           -104.5144   ZZ=           -100.7593
   XY=            -13.4783   XZ=             -1.1461   YZ=              2.1053

  Exact polarizability:     222.612      18.481     147.770      -6.663       2.415      99.282
 Approx polarizability:     288.734      40.332     223.677     -11.489       3.685     153.265

                      1                      2                      3
                      A                      A                      A
 Frequencies --     30.6222                41.9054                71.2985
 Red. masses --      6.8660                 9.5467                 7.1138
 Frc consts  --      0.0038                 0.0099                 0.0213
 IR Inten    --      0.1797                 1.1567                 1.9722

                      4                      5                      6
                      A                      A                      A
 Frequencies --     86.3524               119.5883               142.5807
 Red. masses --      8.0897                 4.2430                 8.0211
 Frc consts  --      0.0355                 0.0358                 0.0961
 IR Inten    --      4.0383                 4.2162                 3.4525

                      7                      8                      9
                      A                      A                      A
 Frequencies --    163.5609               185.5173               228.9461
 Red. masses --      8.2364                 7.0166                 4.3559
 Frc consts  --      0.1298                 0.1423                 0.1345
 IR Inten    --      5.6268                 1.0023                14.5615

                     10                     11                     12
                      A                      A                      A
 Frequencies --    246.9623               282.3955               301.4972
 Red. masses --      4.1278                 5.7203                 3.7266
 Frc consts  --      0.1483                 0.2688                 0.1996
 IR Inten    --     10.6788                17.3116                 9.1110

                     13                     14                     15
                      A                      A                      A
 Frequencies --    314.2562               347.2225               362.1055
 Red. masses --      2.4047                 3.7305                 2.4032
 Frc consts  --      0.1399                 0.2650                 0.1857
 IR Inten    --     19.1099                42.9000                62.4642

                     16                     17                     18
                      A                      A                      A
 Frequencies --    398.3592               422.1671               461.8042
 Red. masses --      2.3979                 9.5627                 2.5896
 Frc consts  --      0.2242                 1.0042                 0.3254
 IR Inten    --     59.9301                12.9764                13.8767

                     19                     20                     21
                      A                      A                      A
 Frequencies --    484.1757               522.4863               548.4417
 Red. masses --      1.4009                 6.2575                 5.7445
 Frc consts  --      0.1935                 1.0065                 1.0180
 IR Inten    --    117.3911                12.8682                14.8027

                     22                     23                     24
                      A                      A                      A
 Frequencies --    574.4442               603.4802               633.2004
 Red. masses --      6.6280                 3.9043                 1.3674
 Frc consts  --      1.2886                 0.8378                 0.3230
 IR Inten    --      5.9191                29.5090                52.1173

                     25                     26                     27
                      A                      A                      A
 Frequencies --    654.5649               716.5174               718.5728
 Red. masses --      5.1985                 2.2238                 1.7017
 Frc consts  --      1.3123                 0.6727                 0.5177
 IR Inten    --      8.5379                22.9778                36.7141

                     28                     29                     30
                      A                      A                      A
 Frequencies --    745.5219               748.8003               782.6344
 Red. masses --      7.3839                 6.0219                 6.4518
 Frc consts  --      2.4180                 1.9894                 2.3283
 IR Inten    --      0.5958                15.6054                28.2264

                     31                     32                     33
                      A                      A                      A
 Frequencies --    792.8614               863.7681               903.7425
 Red. masses --      8.1300                 4.5560                 3.1566
 Frc consts  --      3.0112                 2.0028                 1.5190
 IR Inten    --     23.6710                12.7493                35.8170

                     34                     35                     36
                      A                      A                      A
 Frequencies --    907.1131               936.0191               954.7429
 Red. masses --      2.1855                 2.7029                 3.2175
 Frc consts  --      1.0595                 1.3952                 1.7280
 IR Inten    --      1.0260                17.0897                 8.6577

                     37                     38                     39
                      A                      A                      A
 Frequencies --    991.4280              1012.7730              1041.1802
 Red. masses --      1.5600                 2.9698                 3.0558
 Frc consts  --      0.9034                 1.7948                 1.9518
 IR Inten    --      9.1392                 6.3681                22.9529

                     40                     41                     42
                      A                      A                      A
 Frequencies --   1084.7875              1105.9587              1125.7602
 Red. masses --      2.0307                 3.2672                 2.9296
 Frc consts  --      1.4080                 2.3545                 2.1875
 IR Inten    --     52.4536               107.5696                80.9616

                     43                     44                     45
                      A                      A                      A
 Frequencies --   1154.0974              1167.7398              1207.6714
 Red. masses --      3.6350                 2.9698                 1.6397
 Frc consts  --      2.8526                 2.3860                 1.4090
 IR Inten    --     98.9672               108.2141                25.8988

                     46                     47                     48
                      A                      A                      A
 Frequencies --   1215.4646              1219.5986              1230.5920
 Red. masses --      1.2558                 1.9249                 2.5094
 Frc consts  --      1.0931                 1.6869                 2.2390
 IR Inten    --     30.5778                24.2843               115.3967

                     49                     50                     51
                      A                      A                      A
 Frequencies --   1244.9196              1276.5066              1307.0942
 Red. masses --      1.2035                 1.2344                 1.5057
 Frc consts  --      1.0990                 1.1851                 1.5157
 IR Inten    --     48.7379                 5.0517                 2.1420

                     52                     53                     54
                      A                      A                      A
 Frequencies --   1317.3621              1330.2838              1349.5386
 Red. masses --      2.0268                 1.4689                 1.2856
 Frc consts  --      2.0723                 1.5316                 1.3796
 IR Inten    --     16.1384                 3.5546                14.2892

                     55                     56                     57
                      A                      A                      A
 Frequencies --   1358.8401              1365.9459              1380.2400
 Red. masses --      1.5399                 1.4663                 1.3483
 Frc consts  --      1.6753                 1.6119                 1.5134
 IR Inten    --     13.9269                73.3725                75.5632

                     58                     59                     60
                      A                      A                      A
 Frequencies --   1404.1051              1405.9795              1411.1258
 Red. masses --      4.0049                 1.4257                 2.1491
 Frc consts  --      4.6520                 1.6605                 2.5213
 IR Inten    --     15.8187                38.9840                 3.3213

                     61                     62                     63
                      A                      A                      A
 Frequencies --   1428.8323              1442.7957              1454.3325
 Red. masses --      2.0969                 1.6311                 2.8011
 Frc consts  --      2.5222                 2.0005                 3.4907
 IR Inten    --      8.6865               143.4351               102.1166

                     64                     65                     66
                      A                      A                      A
 Frequencies --   1473.6816              1532.1756              1723.6836
 Red. masses --      1.0868                 5.5613                 8.1412
 Frc consts  --      1.3907                 7.6921                14.2513
 IR Inten    --      3.9921                38.8147               322.4933

                     67                     68                     69
                      A                      A                      A
 Frequencies --   1740.9622              2973.4198              3040.5241
 Red. masses --     10.8629                 1.0786                 1.0668
 Frc consts  --     19.3987                 5.6184                 5.8105
 IR Inten    --    202.7752                25.9887                37.7601

                     70                     71                     72
                      A                      A                      A
 Frequencies --   3047.6544              3062.6194              3081.6233
 Red. masses --      1.0843                 1.0872                 1.0864
 Frc consts  --      5.9336                 6.0081                 6.0786
 IR Inten    --      5.4708                37.8466                33.7542

                     73                     74                     75
                      A                      A                      A
 Frequencies --   3125.6785              3200.9539              3566.6551
 Red. masses --      1.0993                 1.0916                 1.0683
 Frc consts  --      6.3277                 6.5898                 8.0071
 IR Inten    --     15.6822                 0.6867               362.0928

                     76                     77                     78
                      A                      A                      A
 Frequencies --   3611.5790              3769.4473              3862.9166
 Red. masses --      1.0780                 1.0650                 1.0660
 Frc consts  --      8.2842                 8.9159                 9.3719
 IR Inten    --     75.7028                62.9664                26.3421

 - Thermochemistry -
 -------------------
 Temperature   298.150 Kelvin.  Pressure   1.00000 Atm.
 Atom     1 has atomic number  6 and mass  12.00000

 Molecular mass:   243.06171 amu.
 Principal axes and moments of inertia in atomic units:
                           1         2         3
     Eigenvalues --  2065.487165887.389497287.13730
           X            0.99990  -0.01410  -0.00054
           Y            0.01410   0.99990   0.00265
           Z            0.00050  -0.00266   1.00000
 This molecule is an asymmetric top.
 Rotational symmetry number  1.
 Warning -- assumption of classical behavior for rotation
           may cause significant error
 Rotational temperatures (Kelvin)      0.04193     0.01471     0.01189
 Rotational constants (GHZ):           0.87376     0.30654     0.24766
 Zero-point vibrational energy     563122.7 (Joules/Mol)
                                  134.58955 (Kcal/Mol)
 Warning -- explicit consideration of  23 degrees of freedom as
           vibrations may cause significant error
 Vibrational temperatures:     44.06    60.29   102.58   124.24   172.06
          (Kelvin)            205.14   235.33   266.92   329.40   355.32
                              406.30   433.79   452.14   499.58   520.99
                              573.15   607.40   664.43   696.62   751.74
                              789.09   826.50   868.27   911.03   941.77
                             1030.91  1033.87  1072.64  1077.36  1126.04
                             1140.75  1242.77  1300.28  1305.13  1346.72
                             1373.66  1426.44  1457.15  1498.03  1560.77
                             1591.23  1619.72  1660.49  1680.12  1737.57
                             1748.78  1754.73  1770.55  1791.16  1836.61
                             1880.62  1895.39  1913.98  1941.69  1955.07
                             1965.29  1985.86  2020.19  2022.89  2030.30
                             2055.77  2075.86  2092.46  2120.30  2204.46
                             2480.00  2504.86  4278.09  4374.64  4384.89
                             4406.43  4433.77  4497.15  4605.46  5131.62
                             5196.26  5423.39  5557.88

 Zero-point correction=                           0.214482 (Hartree/Particle)
 Thermal correction to Energy=                    0.229482
 Thermal correction to Enthalpy=                  0.230426
 Thermal correction to Gibbs Free Energy=         0.170719
 Sum of electronic and zero-point Energies=           -909.353440
 Sum of electronic and thermal Energies=              -909.338440
 Sum of electronic and thermal Enthalpies=            -909.337496
 Sum of electronic and thermal Free Energies=         -909.397203

                     E (Thermal)             CV                S
                      KCal/Mol        Cal/Mol-Kelvin    Cal/Mol-Kelvin
 Total                  144.002             57.032            125.663
 Electronic               0.000              0.000              1.377
 Translational            0.889              2.981             42.365
 Rotational               0.889              2.981             32.849
 Vibrational            142.225             51.071             49.071
 Vibration     1          0.594              1.984              5.789
 Vibration     2          0.595              1.980              5.167
 Vibration     3          0.598              1.968              4.117
 Vibration     4          0.601              1.959              3.741
 Vibration     5          0.609              1.933              3.107
 Vibration     6          0.616              1.911              2.769
 Vibration     7          0.623              1.887              2.508
 Vibration     8          0.632              1.860              2.272
 Vibration     9          0.652              1.797              1.887
 Vibration    10          0.661              1.768              1.752
 Vibration    11          0.681              1.706              1.519
 Vibration    12          0.693              1.671              1.409
 Vibration    13          0.702              1.646              1.340
 Vibration    14          0.725              1.581              1.179
 Vibration    15          0.736              1.550              1.113
 Vibration    16          0.765              1.474              0.969
 Vibration    17          0.784              1.422              0.885
 Vibration    18          0.820              1.335              0.761
 Vibration    19          0.840              1.285              0.699
 Vibration    20          0.877              1.200              0.604
 Vibration    21          0.904              1.143              0.547
 Vibration    22          0.931              1.087              0.496
 Vibration    23          0.962              1.024              0.444

                           ! Non-Optimized Parameters !
 Normal termination of Gaussian 16 at Sun Oct 27 21:23:14 2024.
