 Gaussian 16, Revision C.01,
 Gaussian 16:  EM64L-G16RevC.01  3-Jul-2019

 ------------------------------------------------------
 # PBE1PBE/aug-cc-pVDZ opt freq EmpiricalDispersion=GD3
 ------------------------------------------------------

 ----
 blah
 ----
 Symbolic Z-matrix:
 Charge = -1 Multiplicity = 1

 SCF Done:  E(RPBE1PBE) =  -909.679207506     A.U. after   15 cycles
 SCF Done:  E(RPBE1PBE) =  -909.674561421     A.U. after   15 cycles
 SCF Done:  E(RPBE1PBE) =  -909.692150028     A.U. after   12 cycles
 SCF Done:  E(RPBE1PBE) =  -909.693440224     A.U. after   12 cycles
 SCF Done:  E(RPBE1PBE) =  -909.693297466     A.U. after   12 cycles
 SCF Done:  E(RPBE1PBE) =  -909.693130183     A.U. after   12 cycles
 SCF Done:  E(RPBE1PBE) =  -909.692707523     A.U. after   12 cycles
 SCF Done:  E(RPBE1PBE) =  -909.693512636     A.U. after    8 cycles
 SCF Done:  E(RPBE1PBE) =  -909.693937789     A.U. after   12 cycles
 SCF Done:  E(RPBE1PBE) =  -909.693984038     A.U. after   12 cycles
 SCF Done:  E(RPBE1PBE) =  -909.694064314     A.U. after   10 cycles
 SCF Done:  E(RPBE1PBE) =  -909.694083857     A.U. after   11 cycles
 SCF Done:  E(RPBE1PBE) =  -909.694110192     A.U. after   11 cycles
 SCF Done:  E(RPBE1PBE) =  -909.694117290     A.U. after   10 cycles
 SCF Done:  E(RPBE1PBE) =  -909.694120027     A.U. after    9 cycles
 SCF Done:  E(RPBE1PBE) =  -909.694120434     A.U. after    8 cycles
 SCF Done:  E(RPBE1PBE) =  -909.694120563     A.U. after    8 cycles
 Optimization completed.
    -- Stationary point found.
 Normal termination of Gaussian 16 at Sat Oct 26 23:46:08 2024.

 ----------------------------------------------------------------------
 #N Geom=AllCheck Guess=TCheck SCRF=Check GenChk RPBE1PBE/Aug-CC-pVDZ F
 req
 ----------------------------------------------------------------------

 Structure from the checkpoint file:  "/scr/Gau-99446.chk"
 ----
 blah
 ----
 Charge = -1 Multiplicity = 1

                         Standard orientation:
 ---------------------------------------------------------------------
 Center     Atomic      Atomic             Coordinates (Angstroms)
 Number     Number       Type             X           Y           Z
 ---------------------------------------------------------------------
      1          6           0        2.705110    0.626780    0.194526
      2          6           0        1.247615    0.918862    0.586503
      3          6           0        0.474520    0.252308   -0.563462
      4          8           0        1.043091    2.295106    0.686650
      5          1           0        1.002007    0.391025    1.526046
      6          8           0        1.209370   -0.946891   -0.806603
      7          1           0        0.554110    0.924106   -1.439485
      8          6           0       -0.963763   -0.050389   -0.300895
      9          6           0        2.603112   -0.670106   -0.623852
     10          1           0        3.345988    0.490414    1.080699
     11          8           0        3.198267    1.681276   -0.605539
     12          6           0        3.200311   -1.899641    0.031731
     13          1           0        3.085122   -0.496483   -1.600791
     14          8           0        2.562671   -2.199267    1.257781
     15          1           0        4.264000   -1.725354    0.246218
     16          1           0        3.124423   -2.752882   -0.666787
     17          1           0        2.602949    2.422832   -0.387735
     18          1           0        0.063892    2.418958    0.445431
     19          1           0        1.617485   -2.088302    1.087482
     20          6           0       -1.477362   -1.300285   -0.349565
     21          7           0       -2.807838   -1.491565   -0.143591
     22          6           0       -3.713084   -0.427675    0.073376
     23          7           0       -3.208941    0.824113    0.128864
     24          6           0       -1.893161    1.058110   -0.021701
     25          1           0       -0.870229   -2.178999   -0.563388
     26          1           0       -3.223124   -2.409120   -0.187286
     27          8           0       -4.904375   -0.734696    0.201047
     28          8           0       -1.427645    2.232996    0.067005
 ---------------------------------------------------------------------

 SCF Done:  E(RPBE1PBE) =  -909.694120563     A.U. after    1 cycles

 The electronic state is 1-A.
 Alpha  occ. eigenvalues --  -19.14439 -19.14000 -19.11741 -19.09760 -19.04994
 Alpha  occ. eigenvalues --  -19.03800 -14.31766 -14.22746 -10.21030 -10.19448
 Alpha  occ. eigenvalues --  -10.19086 -10.19028 -10.18197 -10.18119 -10.17423
 Alpha  occ. eigenvalues --  -10.17047 -10.11806  -0.99919  -0.96891  -0.95756
 Alpha  occ. eigenvalues --   -0.93821  -0.92785  -0.90525  -0.85062  -0.76662
 Alpha  occ. eigenvalues --   -0.71827  -0.69052  -0.65694  -0.59686  -0.54653
 Alpha  occ. eigenvalues --   -0.52369  -0.50880  -0.50547  -0.46240  -0.43662
 Alpha  occ. eigenvalues --   -0.42890  -0.42311  -0.41920  -0.40397  -0.38534
 Alpha  occ. eigenvalues --   -0.36813  -0.35487  -0.34904  -0.33709  -0.32518
 Alpha  occ. eigenvalues --   -0.32223  -0.30233  -0.30134  -0.28878  -0.27945
 Alpha  occ. eigenvalues --   -0.26893  -0.26143  -0.25529  -0.23034  -0.22576
 Alpha  occ. eigenvalues --   -0.20692  -0.18916  -0.18460  -0.17365  -0.15312
 Alpha  occ. eigenvalues --   -0.13248  -0.12656  -0.12093  -0.10724
 Alpha virt. eigenvalues --    0.07400   0.08391   0.09128   0.09760   0.10565
 Alpha virt. eigenvalues --    0.10688   0.11639   0.12111   0.12300   0.12743
 Alpha virt. eigenvalues --    0.13868   0.15043   0.15415   0.15574   0.15705

 Mulliken charges:
               1
     1  C    0.909104
     2  C    0.767642
     3  C    0.688211
     4  O   -0.765529
     5  H   -0.534367
     6  O   -0.804560
     7  H   -0.403928
     8  C    0.619890
     9  C    0.976614
    10  H   -0.399691
    11  O   -0.724573
    12  C    1.149192
    13  H   -0.556078
    14  O   -0.548206
    15  H   -0.263373
    16  H   -0.270485
    17  H    0.189697
    18  H    0.309636
    19  H    0.193045
    20  C    1.252009
    21  N   -0.563190
    22  C    0.660314
    23  N   -0.638034
    24  C    0.386717
    25  H   -0.778973
    26  H   -0.128929
    27  O   -0.728714
    28  O   -0.993441
 Sum of Mulliken charges =  -1.00000

 Dipole moment (field-independent basis, Debye):
    X=              9.1588    Y=             -5.8033    Z=             -1.7823  Tot=             10.9881
 Quadrupole moment (field-independent basis, Debye-Ang):
   XX=           -175.7614   YY=           -117.4321   ZZ=           -105.7846
   XY=              5.6041   XZ=              1.7533   YZ=              2.0182

  Exact polarizability:     198.846      11.414     159.325      -5.537       1.709     107.254
 Approx polarizability:     248.362      27.193     244.309      -8.412       1.547     164.001

                      1                      2                      3
                      A                      A                      A
 Frequencies --     32.7138                50.2985                68.2591
 Red. masses --      6.7628                 8.7009                 6.9856
 Frc consts  --      0.0043                 0.0130                 0.0192
 IR Inten    --      3.2141                 0.2122                 7.8321

                      4                      5                      6
                      A                      A                      A
 Frequencies --     83.5113               122.1277               164.9726
 Red. masses --      9.1606                 4.9229                 6.1782
 Frc consts  --      0.0376                 0.0433                 0.0991
 IR Inten    --      1.5131                 2.2800                11.2370

                      7                      8                      9
                      A                      A                      A
 Frequencies --    186.2815               201.1995               244.6203
 Red. masses --      6.7042                 9.4756                 4.7405
 Frc consts  --      0.1371                 0.2260                 0.1671
 IR Inten    --      0.8365                 0.0924                11.1269

                     10                     11                     12
                      A                      A                      A
 Frequencies --    259.9816               289.0583               325.8035
 Red. masses --      5.5035                 7.3312                 3.4301
 Frc consts  --      0.2192                 0.3609                 0.2145
 IR Inten    --     27.5782                 6.7843                 3.9718

                     13                     14                     15
                      A                      A                      A
 Frequencies --    349.9221               372.1077               393.9198
 Red. masses --      6.1575                 5.5592                 3.1086
 Frc consts  --      0.4442                 0.4535                 0.2842
 IR Inten    --     10.5048                 8.1399                14.9522

                     16                     17                     18
                      A                      A                      A
 Frequencies --    451.5450               457.0794               497.6269
 Red. masses --      4.7210                 4.8764                 1.1854
 Frc consts  --      0.5671                 0.6003                 0.1729
 IR Inten    --     28.7381                17.1482                76.2000

                     19                     20                     21
                      A                      A                      A
 Frequencies --    545.6344               561.8953               577.2181
 Red. masses --      5.4533                 6.5654                 7.4059
 Frc consts  --      0.9566                 1.2213                 1.4538
 IR Inten    --     18.7247                 1.8298                16.4978

                     22                     23                     24
                      A                      A                      A
 Frequencies --    583.7522               589.0305               629.1557
 Red. masses --      1.2060                 1.1193                 5.6788
 Frc consts  --      0.2421                 0.2288                 1.3244
 IR Inten    --     52.2782                87.2942                31.4205

                     25                     26                     27
                      A                      A                      A
 Frequencies --    661.1274               729.2215               732.9357
 Red. masses --      5.9104                 5.3431                 5.0257
 Frc consts  --      1.5221                 1.6740                 1.5907
 IR Inten    --      4.4237                25.9627                12.2047

                     28                     29                     30
                      A                      A                      A
 Frequencies --    787.6286               792.8656               806.7977
 Red. masses --      9.0784                11.1540                 8.2010
 Frc consts  --      3.3182                 4.1312                 3.1452
 IR Inten    --      1.3742                 9.9870                11.5974

                     31                     32                     33
                      A                      A                      A
 Frequencies --    881.6297               910.1314               917.2502
 Red. masses --      2.9899                 3.2726                 1.6807
 Frc consts  --      1.3692                 1.5972                 0.8331
 IR Inten    --      4.3625                 0.9469                14.8573

                     34                     35                     36
                      A                      A                      A
 Frequencies --    931.3522               941.1475               980.0860
 Red. masses --      2.4231                 1.9731                 2.3103
 Frc consts  --      1.2384                 1.0297                 1.3075
 IR Inten    --     26.9659                 7.2087                17.8154

                     37                     38                     39
                      A                      A                      A
 Frequencies --    989.5103              1040.2767              1072.0367
 Red. masses --      1.4958                 3.0616                 5.1224
 Frc consts  --      0.8629                 1.9521                 3.4685
 IR Inten    --     46.4991                18.4993                94.4607

                     40                     41                     42
                      A                      A                      A
 Frequencies --   1087.1434              1105.2667              1131.9935
 Red. masses --      3.8057                 1.7622                 3.3165
 Frc consts  --      2.6500                 1.2684                 2.5039
 IR Inten    --     14.7516                52.8744                79.2935

                     43                     44                     45
                      A                      A                      A
 Frequencies --   1158.8373              1164.5826              1173.4554
 Red. masses --      2.7814                 2.0687                 2.5875
 Frc consts  --      2.2007                 1.6531                 2.0993
 IR Inten    --     69.2788                28.2132                89.5929

                     46                     47                     48
                      A                      A                      A
 Frequencies --   1218.7780              1226.0150              1230.1516
 Red. masses --      1.2637                 1.3808                 1.8806
 Frc consts  --      1.1059                 1.2228                 1.6767
 IR Inten    --     25.9662                29.4095                34.7399

                     49                     50                     51
                      A                      A                      A
 Frequencies --   1274.6652              1294.8017              1301.0554
 Red. masses --      1.2677                 1.4346                 1.2948
 Frc consts  --      1.2136                 1.4170                 1.2914
 IR Inten    --     26.6377                11.4731                 4.3043

                     52                     53                     54
                      A                      A                      A
 Frequencies --   1326.4345              1335.2176              1341.6061
 Red. masses --      2.1238                 1.4778                 2.9767
 Frc consts  --      2.2016                 1.5523                 3.1567
 IR Inten    --      6.3127                 1.5346               136.7046

                     55                     56                     57
                      A                      A                      A
 Frequencies --   1348.1567              1368.5568              1387.1441
 Red. masses --      1.3206                 1.6066                 1.9692
 Frc consts  --      1.4142                 1.7729                 2.2324
 IR Inten    --      5.8635                32.9505                 6.1908

                     58                     59                     60
                      A                      A                      A
 Frequencies --   1390.1535              1405.2658              1424.5381
 Red. masses --      1.7381                 2.0227                 1.3849
 Frc consts  --      1.9790                 2.3535                 1.6558
 IR Inten    --     79.2755                41.8952               104.2920

                     61                     62                     63
                      A                      A                      A
 Frequencies --   1434.1797              1479.6335              1504.6997
 Red. masses --      1.6839                 1.0899                 4.9682
 Frc consts  --      2.0407                 1.4059                 6.6275
 IR Inten    --    122.7869                 2.7875               214.3962

                     64                     65                     66
                      A                      A                      A
 Frequencies --   1525.3090              1605.6535              1724.4853
 Red. masses --      1.9429                 2.4086                 7.0329
 Frc consts  --      2.6633                 3.6586                12.3227
 IR Inten    --    776.6717               220.2792               160.3676

                     67                     68                     69
                      A                      A                      A
 Frequencies --   1743.8303              2839.9388              2990.4215
 Red. masses --      8.7887                 1.0787                 1.0809
 Frc consts  --     15.7465                 5.1261                 5.6953
 IR Inten    --    929.1460              1633.6684                11.2371

                     70                     71                     72
                      A                      A                      A
 Frequencies --   3005.1936              3009.5825              3039.9069
 Red. masses --      1.0688                 1.0852                 1.0857
 Frc consts  --      5.6870                 5.7910                 5.9115
 IR Inten    --     61.5827                60.0088                57.9944

                     73                     74                     75
                      A                      A                      A
 Frequencies --   3042.1533              3103.2291              3216.7250
 Red. masses --      1.0863                 1.0952                 1.0935
 Frc consts  --      5.9232                 6.2142                 6.6662
 IR Inten    --     77.1029                39.5141                 8.4254

                     76                     77                     78
                      A                      A                      A
 Frequencies --   3626.4720              3673.5704              3791.5608
 Red. masses --      1.0648                 1.0784                 1.0653
 Frc consts  --      8.2507                 8.5748                 9.0231
 IR Inten    --    124.4808                41.6288                73.6932

 - Thermochemistry -
 -------------------
 Temperature   298.150 Kelvin.  Pressure   1.00000 Atm.
 Atom     1 has atomic number  6 and mass  12.00000

 Molecular mass:   243.06171 amu.
 Principal axes and moments of inertia in atomic units:
                           1         2         3
     Eigenvalues --  2021.259816025.459907499.27580
           X            1.00000  -0.00223   0.00014
           Y            0.00223   0.99999   0.00372
           Z           -0.00014  -0.00372   0.99999
 This molecule is an asymmetric top.
 Rotational symmetry number  1.
 Warning -- assumption of classical behavior for rotation
           may cause significant error
 Rotational temperatures (Kelvin)      0.04285     0.01437     0.01155
 Rotational constants (GHZ):           0.89288     0.29952     0.24066
 Zero-point vibrational energy     563812.4 (Joules/Mol)
                                  134.75440 (Kcal/Mol)
 Warning -- explicit consideration of  23 degrees of freedom as
           vibrations may cause significant error
 Vibrational temperatures:     47.07    72.37    98.21   120.15   175.71
          (Kelvin)            237.36   268.02   289.48   351.95   374.06
                              415.89   468.76   503.46   535.38   566.76
                              649.67   657.64   715.97   785.05   808.44
                              830.49   839.89   847.48   905.21   951.21
                             1049.19  1054.53  1133.22  1140.76  1160.80
                             1268.47  1309.48  1319.72  1340.01  1354.10
                             1410.13  1423.68  1496.73  1542.42  1564.16
                             1590.23  1628.69  1667.31  1675.57  1688.34
                             1753.55  1763.96  1769.91  1833.96  1862.93
                             1871.93  1908.44  1921.08  1930.27  1939.70
                             1969.05  1995.79  2000.12  2021.86  2049.59
                             2063.46  2128.86  2164.93  2194.58  2310.18
                             2481.15  2508.98  4086.04  4302.55  4323.80
                             4330.12  4373.75  4376.98  4464.85  4628.15
                             5217.68  5285.45  5455.21

 Zero-point correction=                           0.214745 (Hartree/Particle)
 Thermal correction to Energy=                    0.229154
 Thermal correction to Enthalpy=                  0.230098
 Thermal correction to Gibbs Free Energy=         0.172355
 Sum of electronic and zero-point Energies=           -909.479376
 Sum of electronic and thermal Energies=              -909.464967
 Sum of electronic and thermal Enthalpies=            -909.464023
 Sum of electronic and thermal Free Energies=         -909.521765

                     E (Thermal)             CV                S
                      KCal/Mol        Cal/Mol-Kelvin    Cal/Mol-Kelvin
 Total                  143.796             55.453            121.529
 Electronic               0.000              0.000              0.000
 Translational            0.889              2.981             42.365
 Rotational               0.889              2.981             32.879
 Vibrational            142.019             49.492             46.285
 Vibration     1          0.594              1.983              5.658
 Vibration     2          0.595              1.977              4.806
 Vibration     3          0.598              1.969              4.203
 Vibration     4          0.600              1.961              3.807
 Vibration     5          0.610              1.931              3.066
 Vibration     6          0.623              1.885              2.492
 Vibration     7          0.632              1.859              2.265
 Vibration     8          0.638              1.838              2.122
 Vibration     9          0.660              1.772              1.769
 Vibration    10          0.668              1.746              1.662
 Vibration    11          0.686              1.694              1.479
 Vibration    12          0.710              1.624              1.281
 Vibration    13          0.727              1.575              1.167
 Vibration    14          0.744              1.529              1.071
 Vibration    15          0.761              1.483              0.985
 Vibration    16          0.810              1.357              0.791
 Vibration    17          0.815              1.345              0.775
 Vibration    18          0.853              1.255              0.664
 Vibration    19          0.901              1.149              0.553
 Vibration    20          0.918              1.114              0.520
 Vibration    21          0.934              1.081              0.491
 Vibration    22          0.941              1.066              0.478
 Vibration    23          0.946              1.055              0.469

 Optimization completed.
    -- Stationary point found.
 Normal termination of Gaussian 16 at Sun Oct 27 00:00:44 2024.
