 Gaussian 16, Revision C.01,
 Gaussian 16:  EM64L-G16RevC.01  3-Jul-2019

 ------------------------------------------------------
 # PBE1PBE/aug-cc-pVDZ opt freq EmpiricalDispersion=GD3
 ------------------------------------------------------

 ----
 blah
 ----
 Symbolic Z-matrix:
 Charge =  0 Multiplicity = 1

 SCF Done:  E(RPBE1PBE) =  -910.200574734     A.U. after   14 cycles
 SCF Done:  E(RPBE1PBE) =  -910.219071520     A.U. after   13 cycles
 SCF Done:  E(RPBE1PBE) =  -910.219969087     A.U. after   12 cycles
 SCF Done:  E(RPBE1PBE) =  -910.220175027     A.U. after   12 cycles
 SCF Done:  E(RPBE1PBE) =  -910.220289175     A.U. after   12 cycles
 SCF Done:  E(RPBE1PBE) =  -910.220369109     A.U. after   12 cycles
 SCF Done:  E(RPBE1PBE) =  -910.220441444     A.U. after   12 cycles
 SCF Done:  E(RPBE1PBE) =  -910.220490307     A.U. after   12 cycles
 SCF Done:  E(RPBE1PBE) =  -910.220511302     A.U. after   11 cycles
 SCF Done:  E(RPBE1PBE) =  -910.220513390     A.U. after   10 cycles
 SCF Done:  E(RPBE1PBE) =  -910.220515428     A.U. after   10 cycles
 SCF Done:  E(RPBE1PBE) =  -910.220517078     A.U. after   10 cycles
 SCF Done:  E(RPBE1PBE) =  -910.220517580     A.U. after    9 cycles
 SCF Done:  E(RPBE1PBE) =  -910.220517831     A.U. after    9 cycles
 SCF Done:  E(RPBE1PBE) =  -910.220517913     A.U. after    8 cycles
 Optimization completed.
    -- Stationary point found.
 Normal termination of Gaussian 16 at Sat Oct 26 05:38:23 2024.

 ----------------------------------------------------------------------
 #N Geom=AllCheck Guess=TCheck SCRF=Check GenChk RPBE1PBE/Aug-CC-pVDZ F
 req
 ----------------------------------------------------------------------

 Structure from the checkpoint file:  "/scr/Gau-86307.chk"
 ----
 blah
 ----
 Charge =  0 Multiplicity = 1

                         Standard orientation:
 ---------------------------------------------------------------------
 Center     Atomic      Atomic             Coordinates (Angstroms)
 Number     Number       Type             X           Y           Z
 ---------------------------------------------------------------------
      1          6           0       -2.767879   -0.512475    0.323605
      2          6           0       -1.335888   -0.690625    0.827437
      3          6           0       -0.537090   -0.529130   -0.479747
      4          8           0       -1.094418   -1.866186    1.536599
      5          1           0       -1.092118    0.149473    1.489069
      6          8           0       -1.224044    0.508560   -1.175058
      7          1           0       -0.573421   -1.475045   -1.044258
      8          6           0        0.892661   -0.143165   -0.284376
      9          6           0       -2.595653    0.540370   -0.778985
     10          1           0       -3.448660   -0.180890    1.121026
     11          8           0       -3.161657   -1.775306   -0.195257
     12          6           0       -2.961362    1.951707   -0.370055
     13          1           0       -3.224107    0.265504   -1.643688
     14          8           0       -2.241475    2.295071    0.804679
     15          1           0       -4.051325    1.996379   -0.198575
     16          1           0       -2.709690    2.631385   -1.200689
     17          1           0       -4.092456   -1.750224   -0.430037
     18          1           0       -1.454171   -2.597116    1.019209
     19          1           0       -2.510888    3.172609    1.087108
     20          6           0        1.256189    1.132695   -0.025695
     21          7           0        2.561430    1.494794    0.174136
     22          6           0        3.616957    0.602368    0.137869
     23          7           0        3.223105   -0.689543   -0.129610
     24          6           0        1.927484   -1.166936   -0.365932
     25          1           0        0.515613    1.929904    0.025850
     26          1           0        2.817349    2.453789    0.356145
     27          1           0        3.967569   -1.374615   -0.174129
     28          8           0        4.772068    0.937577    0.322163
     29          8           0        1.748532   -2.345561   -0.621057
 ---------------------------------------------------------------------

 SCF Done:  E(RPBE1PBE) =  -910.220517913     A.U. after    1 cycles

 The electronic state is 1-A.
 Alpha  occ. eigenvalues --  -19.25341 -19.25001 -19.24176 -19.22734 -19.20586
 Alpha  occ. eigenvalues --  -19.20072 -14.46880 -14.45196 -10.38465 -10.35085
 Alpha  occ. eigenvalues --  -10.30871 -10.30152 -10.29964 -10.29867 -10.29068
 Alpha  occ. eigenvalues --  -10.28726 -10.25332  -1.11377  -1.10485  -1.08386
 Alpha  occ. eigenvalues --   -1.07900  -1.07217  -1.05777  -1.01236  -0.95886
 Alpha  occ. eigenvalues --   -0.84917  -0.81321  -0.78466  -0.72471  -0.69970
 Alpha  occ. eigenvalues --   -0.68704  -0.64341  -0.62555  -0.60117  -0.58289
 Alpha  occ. eigenvalues --   -0.57602  -0.56634  -0.53736  -0.52879  -0.50716
 Alpha  occ. eigenvalues --   -0.50141  -0.48787  -0.48166  -0.47777  -0.46324
 Alpha  occ. eigenvalues --   -0.45539  -0.44546  -0.43815  -0.42537  -0.41973
 Alpha  occ. eigenvalues --   -0.41764  -0.39257  -0.38538  -0.38095  -0.37039
 Alpha  occ. eigenvalues --   -0.34454  -0.32302  -0.31332  -0.31181  -0.30199
 Alpha  occ. eigenvalues --   -0.29459  -0.28837  -0.27798  -0.24778
 Alpha virt. eigenvalues --   -0.04282  -0.02334  -0.01333  -0.00228   0.00469
 Alpha virt. eigenvalues --    0.00869   0.01882   0.01974   0.03047   0.03247
 Alpha virt. eigenvalues --    0.03450   0.03963   0.05106   0.05286   0.06192

 Mulliken charges:
               1
     1  C    1.209237
     2  C    0.525065
     3  C    1.086077
     4  O   -0.621658
     5  H   -0.428586
     6  O   -0.837959
     7  H   -0.666288
     8  C    0.838474
     9  C    0.851798
    10  H   -0.346710
    11  O   -0.737516
    12  C    0.975762
    13  H   -0.502927
    14  O   -0.568818
    15  H   -0.221224
    16  H   -0.270346
    17  H    0.116651
    18  H    0.095282
    19  H    0.144182
    20  C    1.053123
    21  N   -0.466710
    22  C    0.748242
    23  N   -0.362567
    24  C    0.584930
    25  H   -0.706513
    26  H   -0.095195
    27  H   -0.061957
    28  O   -0.597016
    29  O   -0.736831
 Sum of Mulliken charges =  -0.00000

 Dipole moment (field-independent basis, Debye):
    X=             -6.4271    Y=              4.9889    Z=             -0.3135  Tot=              8.1422
 Quadrupole moment (field-independent basis, Debye-Ang):
   XX=            -94.7775   YY=            -92.0345   ZZ=           -103.7869
   XY=             -4.7542   XZ=              0.9363   YZ=              2.8494

  Exact polarizability:     179.873       7.354     152.716       7.390       5.716     102.452
 Approx polarizability:     221.672      17.763     237.513      12.166      15.790     155.101

                      1                      2                      3
                      A                      A                      A
 Frequencies --     23.9286                33.7838                58.6503
 Red. masses --      6.5577                 5.9886                 7.9844
 Frc consts  --      0.0022                 0.0040                 0.0162
 IR Inten    --      2.4717                 0.7058                 0.1361

                      4                      5                      6
                      A                      A                      A
 Frequencies --     92.0706               115.3666               145.1536
 Red. masses --      5.0477                 5.4084                 6.6659
 Frc consts  --      0.0252                 0.0424                 0.0827
 IR Inten    --      1.0271                 0.6797                 1.9570

                      7                      8                      9
                      A                      A                      A
 Frequencies --    157.1544               164.4617               190.2638
 Red. masses --      9.0825                 7.4453                 1.1277
 Frc consts  --      0.1322                 0.1186                 0.0241
 IR Inten    --      3.4163                 2.9226               116.0659

                     10                     11                     12
                      A                      A                      A
 Frequencies --    213.8098               245.7421               248.3281
 Red. masses --      3.0533                 4.5985                 3.4751
 Frc consts  --      0.0822                 0.1636                 0.1263
 IR Inten    --      5.0086                15.0411                12.7948

                     13                     14                     15
                      A                      A                      A
 Frequencies --    272.5220               312.2063               336.7430
 Red. masses --      1.2724                 4.6927                 3.1578
 Frc consts  --      0.0557                 0.2695                 0.2110
 IR Inten    --     86.8165                12.4324                 3.2285

                     16                     17                     18
                      A                      A                      A
 Frequencies --    355.2265               389.1321               402.7663
 Red. masses --      5.3112                 1.6921                 6.3237
 Frc consts  --      0.3949                 0.1510                 0.6044
 IR Inten    --      9.9476                85.0882                27.0129

                     19                     20                     21
                      A                      A                      A
 Frequencies --    406.4843               473.1022               531.6803
 Red. masses --      3.0873                 4.0644                 5.3927
 Frc consts  --      0.3005                 0.5360                 0.8982
 IR Inten    --     16.4869                 7.3274                28.1006

                     22                     23                     24
                      A                      A                      A
 Frequencies --    550.2062               554.9010               590.4777
 Red. masses --      7.3677                 5.8019                 1.1327
 Frc consts  --      1.3141                 1.0526                 0.2327
 IR Inten    --      8.5259                 3.4430                50.1319

                     25                     26                     27
                      A                      A                      A
 Frequencies --    607.2546               649.0923               699.8846
 Red. masses --      5.3592                 5.6243                 1.2203
 Frc consts  --      1.1644                 1.3962                 0.3522
 IR Inten    --     20.2474                 1.6106                64.0077

                     28                     29                     30
                      A                      A                      A
 Frequencies --    702.3768               747.5775               770.0664
 Red. masses --      3.8312                 5.6087                 9.3590
 Frc consts  --      1.1136                 1.8468                 3.2699
 IR Inten    --     44.0068                11.1770                33.5896

                     31                     32                     33
                      A                      A                      A
 Frequencies --    793.3330               799.3283               878.3448
 Red. masses --      8.4926                 8.4406                 3.6469
 Frc consts  --      3.1492                 3.1774                 1.6577
 IR Inten    --      1.1041                18.2711                12.6064

                     34                     35                     36
                      A                      A                      A
 Frequencies --    904.4602               924.0315               938.2061
 Red. masses --      3.8956                 2.5969                 2.0951
 Frc consts  --      1.8776                 1.3064                 1.0866
 IR Inten    --     11.4522                27.9206                 5.2694

                     37                     38                     39
                      A                      A                      A
 Frequencies --    956.1192               994.1399              1012.5785
 Red. masses --      1.5096                 2.7273                 2.3689
 Frc consts  --      0.8131                 1.5881                 1.4311
 IR Inten    --      8.4426                 9.6803                 9.9703

                     40                     41                     42
                      A                      A                      A
 Frequencies --   1064.1651              1074.4749              1119.9533
 Red. masses --      3.3683                 3.3684                 3.0317
 Frc consts  --      2.2474                 2.2912                 2.2404
 IR Inten    --     27.8253                37.6912                91.6713

                     43                     44                     45
                      A                      A                      A
 Frequencies --   1128.6213              1156.1272              1158.6490
 Red. masses --      2.2705                 2.8533                 2.9054
 Frc consts  --      1.7040                 2.2470                 2.2981
 IR Inten    --     21.9901               115.7595                84.6702

                     46                     47                     48
                      A                      A                      A
 Frequencies --   1168.0295              1202.9786              1217.6099
 Red. masses --      2.0046                 1.5409                 1.5517
 Frc consts  --      1.6114                 1.3138                 1.3554
 IR Inten    --     48.8892                72.8511               102.3839

                     49                     50                     51
                      A                      A                      A
 Frequencies --   1222.5407              1242.7367              1259.6641
 Red. masses --      1.1685                 1.5170                 1.2215
 Frc consts  --      1.0290                 1.3804                 1.1419
 IR Inten    --     67.6832                 7.6163                 3.8524

                     52                     53                     54
                      A                      A                      A
 Frequencies --   1264.0929              1288.2248              1324.3234
 Red. masses --      1.8847                 1.3339                 1.3733
 Frc consts  --      1.7744                 1.3042                 1.4191
 IR Inten    --      5.3136                 8.5678                23.6502

                     55                     56                     57
                      A                      A                      A
 Frequencies --   1332.2444              1337.4268              1370.2894
 Red. masses --      1.4263                 1.5000                 1.8458
 Frc consts  --      1.4916                 1.5808                 2.0421
 IR Inten    --     15.9365                 2.3222                 4.9211

                     58                     59                     60
                      A                      A                      A
 Frequencies --   1383.5609              1400.2592              1409.2433
 Red. masses --      1.5493                 1.7948                 1.6715
 Frc consts  --      1.7474                 2.0734                 1.9559
 IR Inten    --      5.4801                 2.2242                 9.9504

                     61                     62                     63
                      A                      A                      A
 Frequencies --   1416.9725              1438.4310              1444.6722
 Red. masses --      1.6754                 1.6425                 1.5093
 Frc consts  --      1.9820                 2.0024                 1.8560
 IR Inten    --     41.7459                23.4251                38.2420

                     64                     65                     66
                      A                      A                      A
 Frequencies --   1450.3403              1481.6334              1529.7046
 Red. masses --      2.7278                 1.0844                 4.1365
 Frc consts  --      3.3806                 1.4026                 5.7029
 IR Inten    --     44.0116                 5.2994               157.4470

                     67                     68                     69
                      A                      A                      A
 Frequencies --   1720.8545              1783.7751              1825.2432
 Red. masses --      6.8058                 9.3812                 8.1976
 Frc consts  --     11.8745                17.5869                16.0908
 IR Inten    --     45.5299               614.2902               868.5835

                     70                     71                     72
                      A                      A                      A
 Frequencies --   3011.1615              3034.3409              3055.5548
 Red. masses --      1.0609                 1.0826                 1.0844
 Frc consts  --      5.6677                 5.8731                 5.9651
 IR Inten    --     22.0774                92.8180                10.8050

                     73                     74                     75
                      A                      A                      A
 Frequencies --   3067.3441              3078.3107              3123.2876
 Red. masses --      1.1049                 1.0881                 1.0870
 Frc consts  --      6.1250                 6.0747                 6.2477
 IR Inten    --     25.0354                36.5016                 9.6399

                     76                     77                     78
                      A                      A                      A
 Frequencies --   3227.1123              3634.2447              3674.4751
 Red. masses --      1.0949                 1.0778                 1.0790
 Frc consts  --      6.7185                 8.3870                 8.5834
 IR Inten    --      0.7808                73.6630               101.6311

                     79                     80                     81
                      A                      A                      A
 Frequencies --   3830.4196              3892.8569              3895.4348
 Red. masses --      1.0653                 1.0669                 1.0671
 Frc consts  --      9.2094                 9.5259                 9.5401
 IR Inten    --     54.4432                50.7839                52.7662

 - Thermochemistry -
 -------------------
 Temperature   298.150 Kelvin.  Pressure   1.00000 Atm.
 Atom     1 has atomic number  6 and mass  12.00000

 Molecular mass:   244.06954 amu.
 Principal axes and moments of inertia in atomic units:
                           1         2         3
     Eigenvalues --  2113.519855992.272477286.77001
           X            0.99996  -0.00883   0.00157
           Y            0.00883   0.99996   0.00077
           Z           -0.00158  -0.00075   1.00000
 This molecule is an asymmetric top.
 Rotational symmetry number  1.
 Warning -- assumption of classical behavior for rotation
           may cause significant error
 Rotational temperatures (Kelvin)      0.04098     0.01445     0.01189
 Rotational constants (GHZ):           0.85390     0.30118     0.24767
 Zero-point vibrational energy     598027.2 (Joules/Mol)
                                  142.93193 (Kcal/Mol)
 Warning -- explicit consideration of  25 degrees of freedom as
           vibrations may cause significant error
 Vibrational temperatures:     34.43    48.61    84.38   132.47   165.99
          (Kelvin)            208.84   226.11   236.62   273.75   307.62
                              353.57   357.29   392.10   449.20   484.50
                              511.09   559.87   579.49   584.84   680.69
                              764.97   791.62   798.38   849.57   873.70
                              933.90  1006.98  1010.56  1075.60  1107.95
                             1141.43  1150.06  1263.74  1301.32  1329.48
                             1349.87  1375.64  1430.35  1456.87  1531.10
                             1545.93  1611.36  1623.83  1663.41  1667.04
                             1680.53  1730.82  1751.87  1758.96  1788.02
                             1812.38  1818.75  1853.47  1905.41  1916.80
                             1924.26  1971.54  1990.64  2014.66  2027.59
                             2038.71  2069.58  2078.56  2086.72  2131.74
                             2200.90  2475.93  2566.45  2626.12  4332.39
                             4365.74  4396.26  4413.22  4429.00  4493.71
                             4643.09  5228.87  5286.75  5511.12  5600.95
                             5604.66

 Zero-point correction=                           0.227777 (Hartree/Particle)
 Thermal correction to Energy=                    0.243691
 Thermal correction to Enthalpy=                  0.244635
 Thermal correction to Gibbs Free Energy=         0.183301
 Sum of electronic and zero-point Energies=           -909.992741
 Sum of electronic and thermal Energies=              -909.976827
 Sum of electronic and thermal Enthalpies=            -909.975883
 Sum of electronic and thermal Free Energies=         -910.037217

                     E (Thermal)             CV                S
                      KCal/Mol        Cal/Mol-Kelvin    Cal/Mol-Kelvin
 Total                  152.918             59.458            129.089
 Electronic               0.000              0.000              0.000
 Translational            0.889              2.981             42.378
 Rotational               0.889              2.981             32.890
 Vibrational            151.141             53.496             53.822
 Vibration     1          0.593              1.985              6.278
 Vibration     2          0.594              1.983              5.594
 Vibration     3          0.596              1.974              4.502
 Vibration     4          0.602              1.955              3.616
 Vibration     5          0.608              1.937              3.177
 Vibration     6          0.617              1.908              2.735
 Vibration     7          0.621              1.895              2.584
 Vibration     8          0.623              1.886              2.498
 Vibration     9          0.634              1.853              2.225
 Vibration    10          0.644              1.820              2.011
 Vibration    11          0.660              1.770              1.761
 Vibration    12          0.662              1.766              1.742
 Vibration    13          0.676              1.724              1.580
 Vibration    14          0.701              1.650              1.351
 Vibration    15          0.717              1.602              1.228
 Vibration    16          0.731              1.565              1.143
 Vibration    17          0.757              1.493              1.003
 Vibration    18          0.768              1.464              0.953
 Vibration    19          0.771              1.456              0.939
 Vibration    20          0.830              1.310              0.729
 Vibration    21          0.887              1.180              0.583
 Vibration    22          0.905              1.139              0.544
 Vibration    23          0.910              1.129              0.534
 Vibration    24          0.948              1.052              0.466
 Vibration    25          0.966              1.016              0.437

                           ! Non-Optimized Parameters !
 Normal termination of Gaussian 16 at Sat Oct 26 05:54:01 2024.
