 Gaussian 16, Revision C.01,
 Gaussian 16:  EM64L-G16RevC.01  3-Jul-2019

 ------------------------------------------------------
 # PBE1PBE/aug-cc-pVDZ opt freq EmpiricalDispersion=GD3
 ------------------------------------------------------

 ----
 blah
 ----
 Symbolic Z-matrix:
 Charge =  0 Multiplicity = 1

 SCF Done:  E(RPBE1PBE) =  -910.210128199     A.U. after   14 cycles
 SCF Done:  E(RPBE1PBE) =  -910.227969688     A.U. after   13 cycles
 SCF Done:  E(RPBE1PBE) =  -910.228724275     A.U. after   12 cycles
 SCF Done:  E(RPBE1PBE) =  -910.228874368     A.U. after   11 cycles
 SCF Done:  E(RPBE1PBE) =  -910.228929748     A.U. after   10 cycles
 SCF Done:  E(RPBE1PBE) =  -910.228939077     A.U. after   10 cycles
 SCF Done:  E(RPBE1PBE) =  -910.228942973     A.U. after   10 cycles
 SCF Done:  E(RPBE1PBE) =  -910.228947320     A.U. after    9 cycles
 SCF Done:  E(RPBE1PBE) =  -910.228949301     A.U. after    9 cycles
 SCF Done:  E(RPBE1PBE) =  -910.228950068     A.U. after    8 cycles
 SCF Done:  E(RPBE1PBE) =  -910.228950464     A.U. after    8 cycles
 SCF Done:  E(RPBE1PBE) =  -910.228950545     A.U. after    8 cycles
 Optimization completed.
    -- Stationary point found.
 Normal termination of Gaussian 16 at Sat Oct 26 07:13:32 2024.

 ----------------------------------------------------------------------
 #N Geom=AllCheck Guess=TCheck SCRF=Check GenChk RPBE1PBE/Aug-CC-pVDZ F
 req
 ----------------------------------------------------------------------

 Structure from the checkpoint file:  "/scr/Gau-93707.chk"
 ----
 blah
 ----
 Charge =  0 Multiplicity = 1

                         Standard orientation:
 ---------------------------------------------------------------------
 Center     Atomic      Atomic             Coordinates (Angstroms)
 Number     Number       Type             X           Y           Z
 ---------------------------------------------------------------------
      1          6           0       -2.106353   -0.202360    0.809011
      2          6           0       -1.247652   -1.369101    0.323286
      3          6           0       -0.488192   -0.735422   -0.851493
      4          8           0       -2.152490   -2.376238   -0.101487
      5          1           0       -0.568468   -1.754799    1.094480
      6          8           0       -1.287607    0.345452   -1.325109
      7          1           0       -0.377377   -1.483014   -1.651742
      8          6           0        0.871887   -0.242610   -0.452264
      9          6           0       -2.442982    0.501159   -0.509500
     10          1           0       -1.496811    0.467862    1.428032
     11          8           0       -3.226236   -0.577531    1.562953
     12          6           0       -2.785399    1.965212   -0.380967
     13          1           0       -3.306284   -0.011225   -0.971311
     14          8           0       -1.707651    2.647902    0.249231
     15          1           0       -3.709273    2.038413    0.216148
     16          1           0       -2.976532    2.381663   -1.383417
     17          1           0       -3.543555   -1.408950    1.185684
     18          1           0       -1.651216   -3.172661   -0.299089
     19          1           0       -1.993474    3.540444    0.457597
     20          6           0        1.171544    1.067869   -0.311234
     21          7           0        2.424593    1.481755    0.054510
     22          6           0        3.478403    0.623819    0.306383
     23          7           0        3.142079   -0.706521    0.159221
     24          6           0        1.900724   -1.236429   -0.195365
     25          1           0        0.421599    1.841227   -0.474488
     26          1           0        2.638736    2.463074    0.155174
     27          1           0        3.885142   -1.369867    0.342959
     28          8           0        4.586532    1.008777    0.626713
     29          8           0        1.737317   -2.447316   -0.265212
 ---------------------------------------------------------------------

 SCF Done:  E(RPBE1PBE) =  -910.228950545     A.U. after    1 cycles

 The electronic state is 1-A.
 Alpha  occ. eigenvalues --  -19.24956 -19.24767 -19.24265 -19.23256 -19.21274
 Alpha  occ. eigenvalues --  -19.21256 -14.47436 -14.46161 -10.39168 -10.36070
 Alpha  occ. eigenvalues --  -10.31188 -10.30206 -10.29768 -10.29271 -10.29001
 Alpha  occ. eigenvalues --  -10.28952 -10.25956  -1.12118  -1.10619  -1.08847
 Alpha  occ. eigenvalues --   -1.08142  -1.07073  -1.05953  -1.01868  -0.96772
 Alpha  occ. eigenvalues --   -0.85466  -0.80847  -0.79017  -0.72850  -0.70128
 Alpha  occ. eigenvalues --   -0.69489  -0.64803  -0.62244  -0.60142  -0.59193
 Alpha  occ. eigenvalues --   -0.57111  -0.56018  -0.54184  -0.53750  -0.50848
 Alpha  occ. eigenvalues --   -0.50064  -0.49777  -0.48936  -0.47793  -0.46520
 Alpha  occ. eigenvalues --   -0.45497  -0.44831  -0.43948  -0.43632  -0.42686
 Alpha  occ. eigenvalues --   -0.41531  -0.39181  -0.38642  -0.38216  -0.37285
 Alpha  occ. eigenvalues --   -0.35105  -0.31951  -0.31870  -0.31307  -0.31150
 Alpha  occ. eigenvalues --   -0.29859  -0.28839  -0.28062  -0.25975
 Alpha virt. eigenvalues --   -0.04771  -0.01762  -0.00353  -0.00203   0.00155
 Alpha virt. eigenvalues --    0.01099   0.01423   0.01923   0.02754   0.03209
 Alpha virt. eigenvalues --    0.03774   0.04154   0.05371   0.05583   0.05907

 Mulliken charges:
               1
     1  C    0.836592
     2  C    1.204643
     3  C    0.872901
     4  O   -0.763973
     5  H   -0.457063
     6  O   -0.799808
     7  H   -0.436986
     8  C    0.462269
     9  C    0.657716
    10  H   -0.411060
    11  O   -0.625357
    12  C    1.133337
    13  H   -0.542919
    14  O   -0.624117
    15  H   -0.234027
    16  H   -0.194812
    17  H    0.105095
    18  H    0.138740
    19  H    0.158013
    20  C    1.380923
    21  N   -0.521432
    22  C    0.731820
    23  N   -0.351902
    24  C    0.499128
    25  H   -0.699718
    26  H   -0.077135
    27  H   -0.074748
    28  O   -0.590953
    29  O   -0.775165
 Sum of Mulliken charges =  -0.00000

 Dipole moment (field-independent basis, Debye):
    X=             -2.4822    Y=              2.6589    Z=             -0.7425  Tot=              3.7124
 Quadrupole moment (field-independent basis, Debye-Ang):
   XX=           -112.3612   YY=            -85.7477   ZZ=           -103.8930
   XY=             -5.0258   XZ=              1.0337   YZ=             -0.4916

  Exact polarizability:     173.456       8.116     156.194       8.125       3.085     101.647
 Approx polarizability:     216.803      18.269     240.910      14.334       9.002     154.164

                      1                      2                      3
                      A                      A                      A
 Frequencies --     48.0772                48.8871                71.1197
 Red. masses --      5.8136                 8.2764                 6.1453
 Frc consts  --      0.0079                 0.0117                 0.0183
 IR Inten    --      0.6933                 1.1339                 2.5704

                      4                      5                      6
                      A                      A                      A
 Frequencies --     95.7892               120.3662               142.2950
 Red. masses --      6.0462                 5.8984                 6.4867
 Frc consts  --      0.0327                 0.0503                 0.0774
 IR Inten    --      3.3281                 2.9462                 1.5778

                      7                      8                      9
                      A                      A                      A
 Frequencies --    163.9063               180.0735               212.5250
 Red. masses --      8.7474                 6.7353                 1.6968
 Frc consts  --      0.1385                 0.1287                 0.0452
 IR Inten    --      1.6523                 3.2190                56.2750

                     10                     11                     12
                      A                      A                      A
 Frequencies --    249.8465               261.3868               271.2748
 Red. masses --      1.5819                 5.1153                 4.7554
 Frc consts  --      0.0582                 0.2059                 0.2062
 IR Inten    --     49.5334                 1.3741                 4.7040

                     13                     14                     15
                      A                      A                      A
 Frequencies --    289.8559               299.9729               337.2711
 Red. masses --      5.1250                 1.4254                 3.2310
 Frc consts  --      0.2537                 0.0756                 0.2165
 IR Inten    --     13.0961                50.9519                36.4716

                     16                     17                     18
                      A                      A                      A
 Frequencies --    349.2684               399.3325               413.6326
 Red. masses --      5.4949                 8.5961                 3.2304
 Frc consts  --      0.3949                 0.8076                 0.3256
 IR Inten    --     16.9390                19.8901                13.9338

                     19                     20                     21
                      A                      A                      A
 Frequencies --    444.1118               450.7910               546.1660
 Red. masses --      2.4822                 1.4092                 8.4546
 Frc consts  --      0.2885                 0.1687                 1.4859
 IR Inten    --      7.9988                77.5367                 8.8816

                     22                     23                     24
                      A                      A                      A
 Frequencies --    560.4817               580.8258               606.1772
 Red. masses --      5.5389                 5.9137                 1.1485
 Frc consts  --      1.0252                 1.1754                 0.2486
 IR Inten    --      8.9967                16.0273                48.4168

                     25                     26                     27
                      A                      A                      A
 Frequencies --    619.7865               631.4008               699.5017
 Red. masses --      5.5751                 4.8037                 1.2431
 Frc consts  --      1.2618                 1.1283                 0.3584
 IR Inten    --     19.6671                29.8615                62.2723

                     28                     29                     30
                      A                      A                      A
 Frequencies --    708.5907               758.9452               771.0004
 Red. masses --      3.5689                 5.6102                 8.8976
 Frc consts  --      1.0558                 1.9039                 3.1163
 IR Inten    --      6.8724                25.0530                28.9911

                     31                     32                     33
                      A                      A                      A
 Frequencies --    793.1726               803.2261               865.6853
 Red. masses --      8.0838                 8.0346                 3.8446
 Frc consts  --      2.9964                 3.0541                 1.6975
 IR Inten    --      7.3311                26.4424                11.6121

                     34                     35                     36
                      A                      A                      A
 Frequencies --    880.8274               903.6130               961.5710
 Red. masses --      3.5496                 2.4356                 1.9224
 Frc consts  --      1.6226                 1.1717                 1.0472
 IR Inten    --     10.2408                 5.9773                18.6506

                     37                     38                     39
                      A                      A                      A
 Frequencies --    977.5372               995.6654              1014.6239
 Red. masses --      1.8207                 2.7692                 1.9330
 Frc consts  --      1.0251                 1.6174                 1.1724
 IR Inten    --      6.0684                 9.5680                22.4952

                     40                     41                     42
                      A                      A                      A
 Frequencies --   1063.0480              1089.6050              1108.3856
 Red. masses --      2.8313                 4.6985                 2.5013
 Frc consts  --      1.8851                 3.2866                 1.8105
 IR Inten    --      6.1952                69.6671                24.0752

                     43                     44                     45
                      A                      A                      A
 Frequencies --   1130.4297              1158.8687              1170.9754
 Red. masses --      2.5505                 3.1092                 2.3548
 Frc consts  --      1.9202                 2.4602                 1.9024
 IR Inten    --     87.2413               231.1419                19.4676

                     46                     47                     48
                      A                      A                      A
 Frequencies --   1172.8789              1199.9117              1220.8511
 Red. masses --      2.3245                 1.3280                 1.4935
 Frc consts  --      1.8840                 1.1266                 1.3115
 IR Inten    --     80.8525                74.9139                58.3683

                     49                     50                     51
                      A                      A                      A
 Frequencies --   1226.3704              1251.0777              1258.7456
 Red. masses --      1.4042                 1.8731                 1.5190
 Frc consts  --      1.2443                 1.7273                 1.4180
 IR Inten    --     40.1634                10.9981                11.2245

                     52                     53                     54
                      A                      A                      A
 Frequencies --   1271.6574              1295.8348              1310.4069
 Red. masses --      1.4049                 1.2260                 1.3784
 Frc consts  --      1.3385                 1.2130                 1.3946
 IR Inten    --     14.0241                 6.0228                 3.1883

                     55                     56                     57
                      A                      A                      A
 Frequencies --   1320.1417              1335.9375              1371.5217
 Red. masses --      1.4926                 1.4503                 1.6275
 Frc consts  --      1.5326                 1.5250                 1.8037
 IR Inten    --     36.5277                21.8123                 7.2611

                     58                     59                     60
                      A                      A                      A
 Frequencies --   1387.9052              1403.4575              1409.0070
 Red. masses --      2.0813                 1.7837                 1.4745
 Frc consts  --      2.3621                 2.0700                 1.7247
 IR Inten    --     22.4375                 4.2273                 3.7732

                     61                     62                     63
                      A                      A                      A
 Frequencies --   1422.0622              1444.3273              1448.3436
 Red. masses --      1.3405                 1.6520                 2.5977
 Frc consts  --      1.5972                 2.0304                 3.2106
 IR Inten    --     17.4582                29.2149                50.8903

                     64                     65                     66
                      A                      A                      A
 Frequencies --   1451.9133              1480.0110              1528.4990
 Red. masses --      1.7996                 1.0826                 4.3555
 Frc consts  --      2.2351                 1.3971                 5.9954
 IR Inten    --     25.3207                 6.4307               176.4597

                     67                     68                     69
                      A                      A                      A
 Frequencies --   1722.8235              1767.9264              1827.2847
 Red. masses --      6.8822                 9.1587                 8.1468
 Frc consts  --     12.0353                16.8660                16.0268
 IR Inten    --     19.0259               618.2211               877.9665

                     70                     71                     72
                      A                      A                      A
 Frequencies --   3017.3225              3034.2471              3060.9359
 Red. masses --      1.0739                 1.0669                 1.0854
 Frc consts  --      5.7605                 5.7872                 5.9918
 IR Inten    --      9.2675                87.3080                19.9921

                     73                     74                     75
                      A                      A                      A
 Frequencies --   3081.2064              3101.8422              3117.6326
 Red. masses --      1.1077                 1.0875                 1.0869
 Frc consts  --      6.1961                 6.1650                 6.2244
 IR Inten    --     24.1516                 9.3582                21.7047

                     76                     77                     78
                      A                      A                      A
 Frequencies --   3226.3321              3631.7176              3670.8196
 Red. masses --      1.0962                 1.0778                 1.0790
 Frc consts  --      6.7226                 8.3757                 8.5660
 IR Inten    --     23.2672                74.9262               103.3628

                     79                     80                     81
                      A                      A                      A
 Frequencies --   3799.9673              3880.9596              3898.8159
 Red. masses --      1.0653                 1.0669                 1.0669
 Frc consts  --      9.0631                 9.4675                 9.5550
 IR Inten    --     60.0167                63.4474                50.3282

 - Thermochemistry -
 -------------------
 Temperature   298.150 Kelvin.  Pressure   1.00000 Atm.
 Atom     1 has atomic number  6 and mass  12.00000

 Molecular mass:   244.06954 amu.
 Principal axes and moments of inertia in atomic units:
                           1         2         3
     Eigenvalues --  2293.626655590.508767062.74993
           X            0.99995  -0.00945   0.00099
           Y            0.00946   0.99995  -0.00412
           Z           -0.00095   0.00413   0.99999
 This molecule is an asymmetric top.
 Rotational symmetry number  1.
 Warning -- assumption of classical behavior for rotation
           may cause significant error
 Rotational temperatures (Kelvin)      0.03776     0.01549     0.01226
 Rotational constants (GHZ):           0.78685     0.32282     0.25553
 Zero-point vibrational energy     599930.7 (Joules/Mol)
                                  143.38689 (Kcal/Mol)
 Warning -- explicit consideration of  25 degrees of freedom as
           vibrations may cause significant error
 Vibrational temperatures:     69.17    70.34   102.33   137.82   173.18
          (Kelvin)            204.73   235.82   259.09   305.78   359.47
                              376.08   390.30   417.04   431.59   485.26
                              502.52   574.55   595.13   638.98   648.59
                              785.81   806.41   835.68   872.15   891.73
                              908.44  1006.43  1019.50  1091.95  1109.30
                             1141.20  1155.66  1245.53  1267.31  1300.10
                             1383.49  1406.46  1432.54  1459.82  1529.49
                             1567.70  1594.72  1626.44  1667.35  1684.77
                             1687.51  1726.41  1756.53  1764.47  1800.02
                             1811.05  1829.63  1864.42  1885.38  1899.39
                             1922.12  1973.31  1996.89  2019.26  2027.25
                             2046.03  2078.06  2083.84  2088.98  2129.41
                             2199.17  2478.76  2543.65  2629.06  4341.25
                             4365.60  4404.00  4433.17  4462.86  4485.58
                             4641.97  5225.23  5281.49  5467.31  5583.84
                             5609.53

 Zero-point correction=                           0.228502 (Hartree/Particle)
 Thermal correction to Energy=                    0.244034
 Thermal correction to Enthalpy=                  0.244978
 Thermal correction to Gibbs Free Energy=         0.185509
 Sum of electronic and zero-point Energies=           -910.000449
 Sum of electronic and thermal Energies=              -909.984917
 Sum of electronic and thermal Enthalpies=            -909.983973
 Sum of electronic and thermal Free Energies=         -910.043442

                     E (Thermal)             CV                S
                      KCal/Mol        Cal/Mol-Kelvin    Cal/Mol-Kelvin
 Total                  153.134             59.000            125.164
 Electronic               0.000              0.000              0.000
 Translational            0.889              2.981             42.378
 Rotational               0.889              2.981             32.871
 Vibrational            151.356             53.038             49.915
 Vibration     1          0.595              1.978              4.895
 Vibration     2          0.595              1.978              4.862
 Vibration     3          0.598              1.968              4.122
 Vibration     4          0.603              1.952              3.538
 Vibration     5          0.609              1.932              3.094
 Vibration     6          0.616              1.911              2.773
 Vibration     7          0.623              1.887              2.504
 Vibration     8          0.629              1.867              2.328
 Vibration     9          0.644              1.822              2.022
 Vibration    10          0.663              1.763              1.732
 Vibration    11          0.669              1.743              1.652
 Vibration    12          0.675              1.726              1.588
 Vibration    13          0.686              1.693              1.475
 Vibration    14          0.693              1.674              1.417
 Vibration    15          0.718              1.601              1.225
 Vibration    16          0.727              1.577              1.169
 Vibration    17          0.765              1.472              0.965
 Vibration    18          0.777              1.441              0.914
 Vibration    19          0.804              1.374              0.814
 Vibration    20          0.810              1.359              0.793
 Vibration    21          0.901              1.148              0.552
 Vibration    22          0.916              1.117              0.523
 Vibration    23          0.938              1.073              0.484
 Vibration    24          0.965              1.019              0.439
 Vibration    25          0.980              0.990              0.417

 Optimization completed.
    -- Stationary point found.
 Normal termination of Gaussian 16 at Sat Oct 26 07:29:48 2024.
