 Gaussian 16, Revision C.01,
 Gaussian 16:  EM64L-G16RevC.01  3-Jul-2019

 ------------------------------------------------------
 # PBE1PBE/aug-cc-pVDZ opt freq EmpiricalDispersion=GD3
 ------------------------------------------------------

 ----
 blah
 ----
 Symbolic Z-matrix:
 Charge =  0 Multiplicity = 1

 SCF Done:  E(RPBE1PBE) =  -910.211400991     A.U. after   14 cycles
 SCF Done:  E(RPBE1PBE) =  -910.220362249     A.U. after   12 cycles
 SCF Done:  E(RPBE1PBE) =  -910.219989733     A.U. after   12 cycles
 SCF Done:  E(RPBE1PBE) =  -910.222142813     A.U. after   12 cycles
 SCF Done:  E(RPBE1PBE) =  -910.222917426     A.U. after   11 cycles
 SCF Done:  E(RPBE1PBE) =  -910.222977708     A.U. after   11 cycles
 SCF Done:  E(RPBE1PBE) =  -910.223016722     A.U. after   10 cycles
 SCF Done:  E(RPBE1PBE) =  -910.223049507     A.U. after   10 cycles
 SCF Done:  E(RPBE1PBE) =  -910.223081534     A.U. after   11 cycles
 SCF Done:  E(RPBE1PBE) =  -910.223096191     A.U. after   11 cycles
 SCF Done:  E(RPBE1PBE) =  -910.223106949     A.U. after   10 cycles
 SCF Done:  E(RPBE1PBE) =  -910.223115295     A.U. after   11 cycles
 SCF Done:  E(RPBE1PBE) =  -910.223116646     A.U. after    8 cycles
 SCF Done:  E(RPBE1PBE) =  -910.223118236     A.U. after    9 cycles
 SCF Done:  E(RPBE1PBE) =  -910.223119068     A.U. after    8 cycles
 SCF Done:  E(RPBE1PBE) =  -910.223119213     A.U. after    8 cycles
 SCF Done:  E(RPBE1PBE) =  -910.223119245     A.U. after    7 cycles
 Optimization completed.
    -- Stationary point found.
 Normal termination of Gaussian 16 at Thu Oct 17 11:07:40 2024.

 ----------------------------------------------------------------------
 #N Geom=AllCheck Guess=TCheck SCRF=Check GenChk RPBE1PBE/Aug-CC-pVDZ F
 req
 ----------------------------------------------------------------------

 Structure from the checkpoint file:  "/scr/Gau-26250.chk"
 ----
 blah
 ----
 Charge =  0 Multiplicity = 1

                         Standard orientation:
 ---------------------------------------------------------------------
 Center     Atomic      Atomic             Coordinates (Angstroms)
 Number     Number       Type             X           Y           Z
 ---------------------------------------------------------------------
      1          6           0       -2.756183   -0.245127    0.324182
      2          6           0       -1.384409   -0.885649    0.545035
      3          6           0       -0.610509   -0.445947   -0.715862
      4          8           0       -1.534470   -2.274445    0.662691
      5          1           0       -0.905793   -0.443739    1.430646
      6          8           0       -1.244521    0.681756   -1.236993
      7          1           0       -0.605056   -1.258720   -1.456782
      8          7           0        0.806803   -0.121197   -0.431529
      9          6           0       -2.423693    1.007404   -0.477505
     10          1           0       -3.247681   -0.001714    1.279698
     11          8           0       -3.569084   -1.080041   -0.466584
     12          6           0       -2.202376    2.262134    0.338189
     13          1           0       -3.229361    1.195816   -1.199643
     14          8           0       -1.196603    2.010145    1.306011
     15          1           0       -3.159689    2.540284    0.811448
     16          1           0       -1.903460    3.075557   -0.343707
     17          1           0       -3.302667   -1.987540   -0.259001
     18          1           0       -0.645404   -2.650395    0.541402
     19          1           0       -1.042249    2.808066    1.817955
     20          6           0        1.317879    1.142022   -0.565323
     21          6           0        2.619823    1.431163   -0.340401
     22          6           0        3.536850    0.384460    0.057599
     23          7           0        2.916813   -0.872660    0.166154
     24          6           0        1.599940   -1.178398   -0.040973
     25          1           0        0.589011    1.886071   -0.870743
     26          1           0        3.003474    2.440098   -0.455849
     27          1           0        3.505566   -1.644492    0.455893
     28          8           0        4.726625    0.498130    0.292886
     29          8           0        1.154812   -2.314878    0.111573
 ---------------------------------------------------------------------

 SCF Done:  E(RPBE1PBE) =  -910.223119245     A.U. after    1 cycles

 The electronic state is 1-A.
 Alpha  occ. eigenvalues --  -19.26651 -19.25944 -19.23770 -19.23158 -19.22748
 Alpha  occ. eigenvalues --  -19.20593 -14.48243 -14.46371 -10.40012 -10.35726
 Alpha  occ. eigenvalues --  -10.34814 -10.31561 -10.30912 -10.30794 -10.30191
 Alpha  occ. eigenvalues --  -10.30061 -10.25563  -1.13952  -1.12127  -1.08923
 Alpha  occ. eigenvalues --   -1.08606  -1.08337  -1.05616  -1.02472  -0.97352
 Alpha  occ. eigenvalues --   -0.84220  -0.82786  -0.79650  -0.73429  -0.72544
 Alpha  occ. eigenvalues --   -0.68522  -0.65196  -0.63390  -0.59707  -0.59005
 Alpha  occ. eigenvalues --   -0.58483  -0.55747  -0.55062  -0.53972  -0.52417
 Alpha  occ. eigenvalues --   -0.51646  -0.50289  -0.48872  -0.48676  -0.47847
 Alpha  occ. eigenvalues --   -0.46282  -0.44499  -0.44202  -0.43993  -0.43616
 Alpha  occ. eigenvalues --   -0.41860  -0.41245  -0.39473  -0.38675  -0.37968
 Alpha  occ. eigenvalues --   -0.34787  -0.33282  -0.32483  -0.31666  -0.31344
 Alpha  occ. eigenvalues --   -0.30680  -0.30062  -0.28828  -0.26316
 Alpha virt. eigenvalues --   -0.04731  -0.02243  -0.00629   0.00107   0.00326
 Alpha virt. eigenvalues --    0.00472   0.01825   0.02061   0.02519   0.03069
 Alpha virt. eigenvalues --    0.03404   0.04080   0.05436   0.05779   0.06000

 Mulliken charges:
               1
     1  C    1.178142
     2  C    0.928767
     3  C    0.816332
     4  O   -0.667652
     5  H   -0.508161
     6  O   -0.766210
     7  H   -0.554194
     8  N    0.104267
     9  C    0.860847
    10  H   -0.354920
    11  O   -0.723844
    12  C    0.974328
    13  H   -0.437875
    14  O   -0.567960
    15  H   -0.276449
    16  H   -0.230740
    17  H    0.173222
    18  H    0.153909
    19  H    0.149768
    20  C    0.690569
    21  C    1.195322
    22  C    0.359308
    23  N   -0.222890
    24  C    0.537588
    25  H   -0.738066
    26  H   -0.605702
    27  H   -0.104843
    28  O   -0.659015
    29  O   -0.703848
 Sum of Mulliken charges =  -0.00000

 Dipole moment (field-independent basis, Debye):
    X=             -2.9524    Y=              3.7058    Z=              0.6196  Tot=              4.7784
 Quadrupole moment (field-independent basis, Debye-Ang):
   XX=           -122.7699   YY=            -89.9103   ZZ=            -98.5114
   XY=            -11.6914   XZ=             -4.8314   YZ=              3.2136

  Exact polarizability:     184.882       7.617     146.385       7.120      -2.889     101.123
 Approx polarizability:     243.758      15.827     211.840      15.691      -5.527     154.852

                      1                      2                      3
                      A                      A                      A
 Frequencies --     25.8202                49.8912                87.0399
 Red. masses --      5.7221                 8.5857                 6.0772
 Frc consts  --      0.0022                 0.0126                 0.0271
 IR Inten    --      0.9812                 0.5398                 4.8924

                      4                      5                      6
                      A                      A                      A
 Frequencies --    103.2163               117.6319               166.4775
 Red. masses --      6.6459                 4.6473                 8.1646
 Frc consts  --      0.0417                 0.0379                 0.1333
 IR Inten    --      1.4069                 1.1222                 7.2342

                      7                      8                      9
                      A                      A                      A
 Frequencies --    177.5466               187.1905               226.8454
 Red. masses --      8.1399                 7.1122                 4.0164
 Frc consts  --      0.1512                 0.1468                 0.1218
 IR Inten    --      2.8743                 0.3768                24.7004

                     10                     11                     12
                      A                      A                      A
 Frequencies --    268.5730               277.2574               300.8059
 Red. masses --      1.2480                 4.8132                 5.4786
 Frc consts  --      0.0530                 0.2180                 0.2921
 IR Inten    --     81.5814                 5.2518                 7.5118

                     13                     14                     15
                      A                      A                      A
 Frequencies --    322.8937               335.0487               356.4381
 Red. masses --      4.5865                 3.9105                 4.5162
 Frc consts  --      0.2817                 0.2586                 0.3381
 IR Inten    --      7.1295                27.2207                 1.8612

                     16                     17                     18
                      A                      A                      A
 Frequencies --    401.9389               415.7839               427.4423
 Red. masses --      3.3451                 9.1728                 3.2770
 Frc consts  --      0.3184                 0.9343                 0.3528
 IR Inten    --     20.2661                18.0372                 7.0020

                     19                     20                     21
                      A                      A                      A
 Frequencies --    476.5967               530.2603               553.9885
 Red. masses --      1.2738                 4.6942                 6.6910
 Frc consts  --      0.1705                 0.7777                 1.2099
 IR Inten    --    100.1684                13.9120                 5.8581

                     22                     23                     24
                      A                      A                      A
 Frequencies --    577.3676               612.8725               627.5317
 Red. masses --      6.0516                 5.5064                 1.1009
 Frc consts  --      1.1886                 1.2186                 0.2554
 IR Inten    --     32.7945                10.5251                66.3249

                     25                     26                     27
                      A                      A                      A
 Frequencies --    674.6007               698.5060               720.3845
 Red. masses --      5.6773                 1.2207                 4.0465
 Frc consts  --      1.5222                 0.3509                 1.2372
 IR Inten    --      6.9310                50.9336                 8.5407

                     28                     29                     30
                      A                      A                      A
 Frequencies --    726.5398               780.7569               784.2686
 Red. masses --      2.0367                 6.4227                 7.7831
 Frc consts  --      0.6334                 2.3067                 2.8205
 IR Inten    --      2.2763                13.6856                31.2632

                     31                     32                     33
                      A                      A                      A
 Frequencies --    795.6276               825.5683               883.6104
 Red. masses --      7.9353                 2.4064                 4.2017
 Frc consts  --      2.9596                 0.9663                 1.9328
 IR Inten    --     11.2901                54.1140                11.1663

                     34                     35                     36
                      A                      A                      A
 Frequencies --    894.2183               921.4111               944.6928
 Red. masses --      4.1146                 2.6025                 2.2322
 Frc consts  --      1.9385                 1.3018                 1.1737
 IR Inten    --     27.8842                 2.3191                19.3518

                     37                     38                     39
                      A                      A                      A
 Frequencies --    985.3308               991.7433              1012.8442
 Red. masses --      1.3059                 2.5857                 2.2615
 Frc consts  --      0.7470                 1.4984                 1.3669
 IR Inten    --      1.2264                 1.0455                16.5127

                     40                     41                     42
                      A                      A                      A
 Frequencies --   1067.4922              1089.2163              1112.3323
 Red. masses --      2.5506                 2.5543                 1.8248
 Frc consts  --      1.7125                 1.7855                 1.3303
 IR Inten    --      2.3211                27.0867                14.2371

                     43                     44                     45
                      A                      A                      A
 Frequencies --   1136.1991              1142.2410              1161.2148
 Red. masses --      2.8984                 2.5169                 4.4946
 Frc consts  --      2.2045                 1.9348                 3.5708
 IR Inten    --     39.6900                29.8129               181.3198

                     46                     47                     48
                      A                      A                      A
 Frequencies --   1174.9829              1207.7509              1219.9063
 Red. masses --      3.7047                 2.2092                 1.2861
 Frc consts  --      3.0134                 1.8986                 1.1277
 IR Inten    --    192.9299                26.1956                87.6283

                     49                     50                     51
                      A                      A                      A
 Frequencies --   1237.5603              1246.7289              1255.8911
 Red. masses --      1.3913                 2.4972                 1.1522
 Frc consts  --      1.2555                 2.2869                 1.0708
 IR Inten    --     39.3518                31.2661                38.0360

                     52                     53                     54
                      A                      A                      A
 Frequencies --   1283.2718              1294.3434              1301.7212
 Red. masses --      1.2306                 1.2889                 1.5016
 Frc consts  --      1.1940                 1.2723                 1.4992
 IR Inten    --     39.0064                37.1292                99.5526

                     55                     56                     57
                      A                      A                      A
 Frequencies --   1329.2235              1354.1525              1370.1290
 Red. masses --      1.2718                 1.3222                 1.4762
 Frc consts  --      1.3239                 1.4285                 1.6328
 IR Inten    --      2.6725                24.8019                 3.8101

                     58                     59                     60
                      A                      A                      A
 Frequencies --   1380.6699              1396.8996              1406.3942
 Red. masses --      1.3025                 1.5947                 1.9141
 Frc consts  --      1.4628                 1.8335                 2.2307
 IR Inten    --    115.2431                38.3227                 0.8654

                     61                     62                     63
                      A                      A                      A
 Frequencies --   1426.9055              1433.3692              1442.5998
 Red. masses --      1.7203                 1.9594                 1.8308
 Frc consts  --      2.0637                 2.3719                 2.2448
 IR Inten    --     47.2399                66.3029                 4.9185

                     64                     65                     66
                      A                      A                      A
 Frequencies --   1445.3210              1486.8491              1500.2349
 Red. masses --      2.3361                 1.0885                 5.4658
 Frc consts  --      2.8752                 1.4178                 7.2481
 IR Inten    --     32.8113                11.3061               146.8927

                     67                     68                     69
                      A                      A                      A
 Frequencies --   1690.9101              1764.3254              1799.6623
 Red. masses --      6.8432                 8.3174                 9.6276
 Frc consts  --     11.5279                15.2544                18.3718
 IR Inten    --     70.1274               703.8502               735.2720

                     70                     71                     72
                      A                      A                      A
 Frequencies --   3019.2969              3051.4421              3069.4276
 Red. masses --      1.0573                 1.0861                 1.1070
 Frc consts  --      5.6790                 5.9587                 6.1448
 IR Inten    --     45.7603                27.2069                38.0249

                     73                     74                     75
                      A                      A                      A
 Frequencies --   3074.3424              3086.9691              3108.9332
 Red. masses --      1.0867                 1.0863                 1.0871
 Frc consts  --      6.0514                 6.0989                 6.1909
 IR Inten    --      5.9129                27.1062                22.5470

                     76                     77                     78
                      A                      A                      A
 Frequencies --   3266.2808              3282.1331              3628.8541
 Red. masses --      1.0897                 1.0981                 1.0779
 Frc consts  --      6.8495                 6.9697                 8.3627
 IR Inten    --      4.9857                 5.2449                85.0882

                     79                     80                     81
                      A                      A                      A
 Frequencies --   3669.3574              3766.5087              3892.0579
 Red. masses --      1.0662                 1.0653                 1.0670
 Frc consts  --      8.4579                 8.9047                 9.5228
 IR Inten    --    333.1344                73.7681                50.9135

 - Thermochemistry -
 -------------------
 Temperature   298.150 Kelvin.  Pressure   1.00000 Atm.
 Atom     1 has atomic number  6 and mass  12.00000

 Molecular mass:   244.06954 amu.
 Principal axes and moments of inertia in atomic units:
                           1         2         3
     Eigenvalues --  2032.963945347.638406665.48291
           X            0.99995  -0.00938  -0.00335
           Y            0.00939   0.99995   0.00409
           Z            0.00331  -0.00412   0.99999
 This molecule is an asymmetric top.
 Rotational symmetry number  1.
 Warning -- assumption of classical behavior for rotation
           may cause significant error
 Rotational temperatures (Kelvin)      0.04260     0.01620     0.01299
 Rotational constants (GHZ):           0.88774     0.33748     0.27076
 Zero-point vibrational energy     600170.5 (Joules/Mol)
                                  143.44418 (Kcal/Mol)
 Warning -- explicit consideration of  23 degrees of freedom as
           vibrations may cause significant error
 Vibrational temperatures:     37.15    71.78   125.23   148.51   169.25
          (Kelvin)            239.52   255.45   269.33   326.38   386.42
                              398.91   432.79   464.57   482.06   512.83
                              578.30   598.22   614.99   685.72   762.93
                              797.07   830.70   881.79   902.88   970.60
                             1004.99  1036.47  1045.33  1123.34  1128.39
                             1144.73  1187.81  1271.32  1286.58  1325.71
                             1359.20  1417.67  1426.90  1457.26  1535.88
                             1567.14  1600.40  1634.74  1643.43  1670.73
                             1690.54  1737.68  1755.17  1780.57  1793.76
                             1806.95  1846.34  1862.27  1872.89  1912.46
                             1948.32  1971.31  1986.48  2009.83  2023.49
                             2053.00  2062.30  2075.58  2079.49  2139.24
                             2158.50  2432.84  2538.47  2589.31  4344.09
                             4390.34  4416.22  4423.29  4441.46  4473.06
                             4699.45  4722.26  5221.11  5279.39  5419.17
                             5599.80

 Zero-point correction=                           0.228593 (Hartree/Particle)
 Thermal correction to Energy=                    0.243532
 Thermal correction to Enthalpy=                  0.244476
 Thermal correction to Gibbs Free Energy=         0.185987
 Sum of electronic and zero-point Energies=           -909.994526
 Sum of electronic and thermal Energies=              -909.979587
 Sum of electronic and thermal Enthalpies=            -909.978643
 Sum of electronic and thermal Free Energies=         -910.037132

                     E (Thermal)             CV                S
                      KCal/Mol        Cal/Mol-Kelvin    Cal/Mol-Kelvin
 Total                  152.819             57.584            123.101
 Electronic               0.000              0.000              0.000
 Translational            0.889              2.981             42.378
 Rotational               0.889              2.981             32.649
 Vibrational            151.041             51.622             48.074
 Vibration     1          0.593              1.985              6.127
 Vibration     2          0.595              1.978              4.822
 Vibration     3          0.601              1.958              3.726
 Vibration     4          0.605              1.947              3.393
 Vibration     5          0.608              1.935              3.139
 Vibration     6          0.624              1.884              2.475
 Vibration     7          0.628              1.870              2.354
 Vibration     8          0.632              1.857              2.255
 Vibration     9          0.651              1.800              1.904
 Vibration    10          0.673              1.731              1.605
 Vibration    11          0.678              1.716              1.551
 Vibration    12          0.693              1.672              1.412
 Vibration    13          0.708              1.630              1.295
 Vibration    14          0.716              1.606              1.236
 Vibration    15          0.732              1.562              1.138
 Vibration    16          0.768              1.466              0.956
 Vibration    17          0.779              1.436              0.906
 Vibration    18          0.789              1.411              0.867
 Vibration    19          0.833              1.302              0.719
 Vibration    20          0.885              1.183              0.587
 Vibration    21          0.909              1.131              0.536
 Vibration    22          0.934              1.080              0.490
 Vibration    23          0.972              1.005              0.428

 Optimization completed.
    -- Stationary point found.
 Normal termination of Gaussian 16 at Thu Oct 17 11:24:25 2024.
