 Gaussian 16, Revision C.01,
 Gaussian 16:  EM64L-G16RevC.01  3-Jul-2019

 ------------------------------------------------------
 # PBE1PBE/aug-cc-pVDZ opt freq EmpiricalDispersion=GD3
 ------------------------------------------------------

 ----
 blah
 ----
 Symbolic Z-matrix:
 Charge = -1 Multiplicity = 1

 SCF Done:  E(RPBE1PBE) =  -909.654554736     A.U. after   16 cycles
 SCF Done:  E(RPBE1PBE) =  -909.657514493     A.U. after   13 cycles
 SCF Done:  E(RPBE1PBE) =  -909.665261212     A.U. after   13 cycles
 SCF Done:  E(RPBE1PBE) =  -909.666497301     A.U. after   13 cycles
 SCF Done:  E(RPBE1PBE) =  -909.668779004     A.U. after   13 cycles
 SCF Done:  E(RPBE1PBE) =  -909.669661726     A.U. after   11 cycles
 SCF Done:  E(RPBE1PBE) =  -909.669991798     A.U. after   11 cycles
 SCF Done:  E(RPBE1PBE) =  -909.670234588     A.U. after   12 cycles
 SCF Done:  E(RPBE1PBE) =  -909.670440010     A.U. after   12 cycles
 SCF Done:  E(RPBE1PBE) =  -909.670639237     A.U. after   12 cycles
 SCF Done:  E(RPBE1PBE) =  -909.677708925     A.U. after   11 cycles
 SCF Done:  E(RPBE1PBE) =  -909.677745657     A.U. after   11 cycles
 SCF Done:  E(RPBE1PBE) =  -909.677762963     A.U. after   11 cycles
 SCF Done:  E(RPBE1PBE) =  -909.677770751     A.U. after   10 cycles
 SCF Done:  E(RPBE1PBE) =  -909.677780188     A.U. after   10 cycles
 SCF Done:  E(RPBE1PBE) =  -909.677781284     A.U. after    9 cycles
 SCF Done:  E(RPBE1PBE) =  -909.677782234     A.U. after    8 cycles
 SCF Done:  E(RPBE1PBE) =  -909.677782598     A.U. after    8 cycles
 SCF Done:  E(RPBE1PBE) =  -909.677782655     A.U. after    8 cycles
 Optimization completed.
    -- Stationary point found.
 Normal termination of Gaussian 16 at Fri Oct 18 11:46:28 2024.

 ----------------------------------------------------------------------
 #N Geom=AllCheck Guess=TCheck SCRF=Check GenChk RPBE1PBE/Aug-CC-pVDZ F
 req
 ----------------------------------------------------------------------

 Structure from the checkpoint file:  "/scr/Gau-24060.chk"
 ----
 blah
 ----
 Charge = -1 Multiplicity = 1

                         Standard orientation:
 ---------------------------------------------------------------------
 Center     Atomic      Atomic             Coordinates (Angstroms)
 Number     Number       Type             X           Y           Z
 ---------------------------------------------------------------------
      1          6           0       -2.654258   -0.601575    0.239742
      2          6           0       -1.200587   -0.892459    0.640659
      3          6           0       -0.421615   -0.304064   -0.547063
      4          8           0       -1.014104   -2.263447    0.817351
      5          1           0       -0.935095   -0.312197    1.542729
      6          8           0       -1.137451    0.869783   -0.882387
      7          1           0       -0.437663   -1.027728   -1.379729
      8          7           0        0.960384    0.039287   -0.272924
      9          6           0       -2.535690    0.643410   -0.650957
     10          1           0       -3.286788   -0.401989    1.119393
     11          8           0       -3.167141   -1.689639   -0.498095
     12          6           0       -3.089090    1.921332   -0.054121
     13          1           0       -3.038518    0.430803   -1.608459
     14          8           0       -2.468395    2.248189    1.173256
     15          1           0       -4.161544    1.794811    0.148571
     16          1           0       -2.970896    2.740785   -0.785499
     17          1           0       -2.590195   -2.431073   -0.235583
     18          1           0       -0.068238   -2.417008    0.494250
     19          1           0       -1.517659    2.178533    1.021035
     20          6           0        1.416428    1.329349   -0.247854
     21          6           0        2.727874    1.586950   -0.060221
     22          6           0        3.673687    0.473847    0.083126
     23          7           0        3.164478   -0.802597    0.057386
     24          6           0        1.872059   -1.035956   -0.097843
     25          1           0        0.668337    2.103027   -0.403649
     26          1           0        3.102666    2.608411   -0.040018
     27          8           0        4.885165    0.694756    0.221238
     28          8           0        1.355514   -2.190668   -0.105999
 ---------------------------------------------------------------------

 SCF Done:  E(RPBE1PBE) =  -909.677782655     A.U. after    1 cycles

 The electronic state is 1-A.
 Alpha  occ. eigenvalues --  -19.16007 -19.15043 -19.12729 -19.10993 -19.05483
 Alpha  occ. eigenvalues --  -19.02750 -14.32872 -14.22362 -10.22452 -10.21758
 Alpha  occ. eigenvalues --  -10.20418 -10.20360 -10.19259 -10.18632 -10.17514
 Alpha  occ. eigenvalues --  -10.16578 -10.10409  -1.01965  -0.98075  -0.97135
 Alpha  occ. eigenvalues --   -0.95091  -0.93072  -0.89552  -0.86079  -0.77086
 Alpha  occ. eigenvalues --   -0.71263  -0.69550  -0.66156  -0.60404  -0.55410
 Alpha  occ. eigenvalues --   -0.54404  -0.51463  -0.49312  -0.46809  -0.44991
 Alpha  occ. eigenvalues --   -0.43465  -0.42995  -0.42702  -0.40648  -0.38719
 Alpha  occ. eigenvalues --   -0.37914  -0.36199  -0.34593  -0.33899  -0.33766
 Alpha  occ. eigenvalues --   -0.32043  -0.31068  -0.30470  -0.29400  -0.28028
 Alpha  occ. eigenvalues --   -0.27387  -0.27086  -0.25033  -0.24806  -0.23054
 Alpha  occ. eigenvalues --   -0.21341  -0.20318  -0.19360  -0.18741  -0.15811
 Alpha  occ. eigenvalues --   -0.13534  -0.11846  -0.10796  -0.10477
 Alpha virt. eigenvalues --    0.07105   0.08536   0.08788   0.09693   0.10808
 Alpha virt. eigenvalues --    0.11081   0.11388   0.11800   0.12033   0.12529
 Alpha virt. eigenvalues --    0.13780   0.14961   0.15187   0.15422   0.15684

 Mulliken charges:
               1
     1  C    0.972182
     2  C    0.875235
     3  C    0.608501
     4  O   -0.767065
     5  H   -0.512007
     6  O   -0.769449
     7  H   -0.585091
     8  N    0.081788
     9  C    1.001991
    10  H   -0.374338
    11  O   -0.722355
    12  C    1.159444
    13  H   -0.528989
    14  O   -0.524763
    15  H   -0.275413
    16  H   -0.260773
    17  H    0.188484
    18  H    0.299155
    19  H    0.167341
    20  C    0.710808
    21  C    0.852975
    22  C    0.471485
    23  N   -0.508789
    24  C    0.483167
    25  H   -0.796887
    26  H   -0.587338
    27  O   -0.788149
    28  O   -0.871150
 Sum of Mulliken charges =  -1.00000

 Dipole moment (field-independent basis, Debye):
    X=            -11.6236    Y=              4.2532    Z=             -1.4601  Tot=             12.4631
 Quadrupole moment (field-independent basis, Debye-Ang):
   XX=           -178.9657   YY=           -119.7034   ZZ=           -105.4071
   XY=             -0.0200   XZ=             -0.3066   YZ=             -1.9525

  Exact polarizability:     204.915      10.650     155.820       6.964       0.441     107.367
 Approx polarizability:     268.137      22.800     224.502      12.755       3.122     163.539

                      1                      2                      3
                      A                      A                      A
 Frequencies --     26.6120                45.3290                63.7929
 Red. masses --      6.5699                 8.6446                 5.8159
 Frc consts  --      0.0027                 0.0105                 0.0139
 IR Inten    --      2.2472                 0.6999                 6.1547

                      4                      5                      6
                      A                      A                      A
 Frequencies --     79.0060               120.9419               171.4767
 Red. masses --      8.6967                 4.8625                 6.3608
 Frc consts  --      0.0320                 0.0419                 0.1102
 IR Inten    --      1.6462                 1.9553                 3.7337

                      7                      8                      9
                      A                      A                      A
 Frequencies --    174.5136               211.5648               248.2612
 Red. masses --      7.0793                 8.0783                 5.8583
 Frc consts  --      0.1270                 0.2130                 0.2127
 IR Inten    --      3.6343                 1.1933                12.9419

                     10                     11                     12
                      A                      A                      A
 Frequencies --    264.1554               290.5335               325.2516
 Red. masses --      4.7345                 6.6640                 3.4250
 Frc consts  --      0.1946                 0.3314                 0.2135
 IR Inten    --     21.9767                11.7180                 2.7837

                     13                     14                     15
                      A                      A                      A
 Frequencies --    338.2184               370.5028               413.2069
 Red. masses --      5.7903                 5.4810                 3.0529
 Frc consts  --      0.3903                 0.4433                 0.3071
 IR Inten    --     15.9964                 5.9986                16.6304

                     16                     17                     18
                      A                      A                      A
 Frequencies --    428.6541               456.5541               466.4792
 Red. masses --      2.7824                 7.4381                 1.3824
 Frc consts  --      0.3012                 0.9135                 0.1772
 IR Inten    --     40.9250                28.8181                62.3058

                     19                     20                     21
                      A                      A                      A
 Frequencies --    541.8719               556.4861               582.4737
 Red. masses --      6.3718                 5.9406                 9.1983
 Frc consts  --      1.1023                 1.0839                 1.8387
 IR Inten    --     10.4665                 5.2915                 7.3589

                     22                     23                     24
                      A                      A                      A
 Frequencies --    591.4839               631.2267               661.3925
 Red. masses --      1.1285                 5.7729                 5.7710
 Frc consts  --      0.2326                 1.3552                 1.4874
 IR Inten    --     78.9827                20.7902                 9.1399

                     25                     26                     27
                      A                      A                      A
 Frequencies --    721.8131               730.4198               734.7113
 Red. masses --      1.7144                 5.4923                 4.6620
 Frc consts  --      0.5263                 1.7264                 1.4827
 IR Inten    --     11.5290                24.1889                16.0230

                     28                     29                     30
                      A                      A                      A
 Frequencies --    784.9657               792.2978               834.0810
 Red. masses --      8.6131                10.3396                 3.4854
 Frc consts  --      3.1269                 3.8241                 1.4286
 IR Inten    --      7.5132                13.9906                37.4087

                     31                     32                     33
                      A                      A                      A
 Frequencies --    886.8761               905.9787               924.8797
 Red. masses --      3.2154                 3.3483                 2.3260
 Frc consts  --      1.4901                 1.6192                 1.1723
 IR Inten    --      2.1215                 6.5915                18.0493

                     34                     35                     36
                      A                      A                      A
 Frequencies --    934.8273               958.4912               962.7993
 Red. masses --      1.7657                 1.3340                 1.3319
 Frc consts  --      0.9092                 0.7221                 0.7275
 IR Inten    --     10.4592                30.4913                27.6122

                     37                     38                     39
                      A                      A                      A
 Frequencies --    999.6680              1037.2275              1064.1641
 Red. masses --      3.9736                 2.8877                 2.9423
 Frc consts  --      2.3396                 1.8304                 1.9631
 IR Inten    --     23.5533                17.4085                23.4216

                     40                     41                     42
                      A                      A                      A
 Frequencies --   1085.6911              1104.7615              1123.8319
 Red. masses --      3.4116                 1.7673                 1.9397
 Frc consts  --      2.3693                 1.2709                 1.4434
 IR Inten    --      9.6617                51.9870                63.4417

                     43                     44                     45
                      A                      A                      A
 Frequencies --   1136.7512              1165.0234              1175.5555
 Red. masses --      3.6328                 3.6228                 3.2433
 Frc consts  --      2.7658                 2.8971                 2.6407
 IR Inten    --    109.2841               121.4894                51.0721

                     46                     47                     48
                      A                      A                      A
 Frequencies --   1220.1876              1220.5025              1228.4693
 Red. masses --      1.4197                 1.6382                 1.4073
 Frc consts  --      1.2453                 1.4378                 1.2513
 IR Inten    --     17.5998                24.6771                25.9806

                     49                     50                     51
                      A                      A                      A
 Frequencies --   1276.4465              1294.1762              1297.3584
 Red. masses --      1.4285                 1.3538                 1.4571
 Frc consts  --      1.3713                 1.3360                 1.4450
 IR Inten    --     18.9178                62.7248                27.7700

                     52                     53                     54
                      A                      A                      A
 Frequencies --   1310.1714              1339.6887              1345.0455
 Red. masses --      1.7784                 1.6520                 2.1725
 Frc consts  --      1.7986                 1.7469                 2.3157
 IR Inten    --     51.3940               118.8019               121.5690

                     55                     56                     57
                      A                      A                      A
 Frequencies --   1353.4664              1358.2626              1372.1582
 Red. masses --      1.4134                 5.0104                 1.4992
 Frc consts  --      1.5255                 5.4461                 1.6631
 IR Inten    --      2.3952                41.5266                10.4455

                     58                     59                     60
                      A                      A                      A
 Frequencies --   1391.7484              1409.5925              1421.3427
 Red. masses --      1.3589                 1.5520                 1.4673
 Frc consts  --      1.5508                 1.8169                 1.7466
 IR Inten    --    105.0699                43.0170                64.3199

                     61                     62                     63
                      A                      A                      A
 Frequencies --   1431.8493              1477.1121              1485.8415
 Red. masses --      1.6114                 1.0893                 4.1278
 Frc consts  --      1.9465                 1.4003                 5.3692
 IR Inten    --    132.3916                 2.6282                24.9726

                     64                     65                     66
                      A                      A                      A
 Frequencies --   1513.5021              1617.8911              1702.9901
 Red. masses --      1.5520                 4.3056                10.2033
 Frc consts  --      2.0946                 6.6403                17.4347
 IR Inten    --    692.6436               429.4935               197.0685

                     67                     68                     69
                      A                      A                      A
 Frequencies --   1717.5123              2930.9778              3013.0837
 Red. masses --      7.1599                 1.0758                 1.0746
 Frc consts  --     12.4440                 5.4452                 5.7478
 IR Inten    --    841.9708              1378.6280                61.7153

                     70                     71                     72
                      A                      A                      A
 Frequencies --   3013.9078              3036.9210              3047.3225
 Red. masses --      1.0770                 1.0853                 1.0868
 Frc consts  --      5.7643                 5.8976                 5.9461
 IR Inten    --     59.6375                30.4247                46.2132

                     73                     74                     75
                      A                      A                      A
 Frequencies --   3052.1586              3108.8942              3225.4162
 Red. masses --      1.0857                 1.0960                 1.0869
 Frc consts  --      5.9593                 6.2411                 6.6620
 IR Inten    --     74.0065                36.7314                 1.9687

                     76                     77                     78
                      A                      A                      A
 Frequencies --   3247.2967              3630.2614              3817.9087
 Red. masses --      1.0990                 1.0647                 1.0655
 Frc consts  --      6.8282                 8.2675                 9.1507
 IR Inten    --     15.7113               123.9758                64.0167

 - Thermochemistry -
 -------------------
 Temperature   298.150 Kelvin.  Pressure   1.00000 Atm.
 Atom     1 has atomic number  6 and mass  12.00000

 Molecular mass:   243.06171 amu.
 Principal axes and moments of inertia in atomic units:
                           1         2         3
     Eigenvalues --  2008.139475767.445027226.87903
           X            1.00000  -0.00237   0.00050
           Y            0.00237   0.99999  -0.00350
           Z           -0.00049   0.00350   0.99999
 This molecule is an asymmetric top.
 Rotational symmetry number  1.
 Warning -- assumption of classical behavior for rotation
           may cause significant error
 Rotational temperatures (Kelvin)      0.04313     0.01502     0.01198
 Rotational constants (GHZ):           0.89871     0.31292     0.24973
 Zero-point vibrational energy     562449.8 (Joules/Mol)
                                  134.42873 (Kcal/Mol)
 Warning -- explicit consideration of  22 degrees of freedom as
           vibrations may cause significant error
 Vibrational temperatures:     38.29    65.22    91.78   113.67   174.01
          (Kelvin)            246.72   251.09   304.39   357.19   380.06
                              418.01   467.96   486.62   533.07   594.51
                              616.74   656.88   671.16   779.63   800.66
                              838.05   851.01   908.19   951.60  1038.53
                             1050.91  1057.09  1129.39  1139.94  1200.06
                             1276.02  1303.50  1330.70  1345.01  1379.06
                             1385.25  1438.30  1492.34  1531.09  1562.07
                             1589.51  1616.94  1635.53  1676.21  1691.36
                             1755.58  1756.03  1767.49  1836.52  1862.03
                             1866.61  1885.04  1927.51  1935.22  1947.34
                             1954.24  1974.23  2002.42  2028.09  2045.00
                             2060.11  2125.23  2137.79  2177.59  2327.78
                             2450.22  2471.12  4217.02  4335.16  4336.34
                             4369.45  4384.42  4391.38  4473.01  4640.65
                             4672.14  5223.14  5493.12

 Zero-point correction=                           0.214226 (Hartree/Particle)
 Thermal correction to Energy=                    0.228630
 Thermal correction to Enthalpy=                  0.229574
 Thermal correction to Gibbs Free Energy=         0.171536
 Sum of electronic and zero-point Energies=           -909.463557
 Sum of electronic and thermal Energies=              -909.449153
 Sum of electronic and thermal Enthalpies=            -909.448209
 Sum of electronic and thermal Free Energies=         -909.506247

                     E (Thermal)             CV                S
                      KCal/Mol        Cal/Mol-Kelvin    Cal/Mol-Kelvin
 Total                  143.467             55.256            122.151
 Electronic               0.000              0.000              0.000
 Translational            0.889              2.981             42.365
 Rotational               0.889              2.981             32.792
 Vibrational            141.690             49.295             46.993
 Vibration     1          0.593              1.984              6.067
 Vibration     2          0.595              1.979              5.011
 Vibration     3          0.597              1.972              4.336
 Vibration     4          0.600              1.963              3.915
 Vibration     5          0.609              1.932              3.085
 Vibration     6          0.626              1.878              2.419
 Vibration     7          0.627              1.874              2.386
 Vibration     8          0.643              1.823              2.030
 Vibration     9          0.662              1.766              1.743
 Vibration    10          0.671              1.739              1.634
 Vibration    11          0.686              1.691              1.471
 Vibration    12          0.709              1.625              1.284
 Vibration    13          0.719              1.599              1.221
 Vibration    14          0.743              1.533              1.078
 Vibration    15          0.777              1.442              0.915
 Vibration    16          0.790              1.408              0.863
 Vibration    17          0.815              1.346              0.776
 Vibration    18          0.824              1.324              0.747
 Vibration    19          0.897              1.157              0.561
 Vibration    20          0.912              1.126              0.531
 Vibration    21          0.939              1.069              0.481
 Vibration    22          0.949              1.050              0.465

                           ! Non-Optimized Parameters !
 Normal termination of Gaussian 16 at Fri Oct 18 12:01:36 2024.
