 Gaussian 16, Revision C.01,
 Gaussian 16:  EM64L-G16RevC.01  3-Jul-2019

 ------------------------------------------------------
 # PBE1PBE/aug-cc-pVDZ opt freq EmpiricalDispersion=GD3
 ------------------------------------------------------

 ----
 blah
 ----
 Symbolic Z-matrix:
 Charge =  0 Multiplicity = 2

 SCF Done:  E(UPBE1PBE) =  -909.552303088     A.U. after   22 cycles
 SCF Done:  E(UPBE1PBE) =  -909.555916468     A.U. after   20 cycles
 SCF Done:  E(UPBE1PBE) =  -909.557086078     A.U. after   19 cycles
 SCF Done:  E(UPBE1PBE) =  -909.558973284     A.U. after   16 cycles
 SCF Done:  E(UPBE1PBE) =  -909.559940512     A.U. after   15 cycles
 SCF Done:  E(UPBE1PBE) =  -909.560355246     A.U. after   15 cycles
 SCF Done:  E(UPBE1PBE) =  -909.560433341     A.U. after   14 cycles
 SCF Done:  E(UPBE1PBE) =  -909.560492021     A.U. after   14 cycles
 SCF Done:  E(UPBE1PBE) =  -909.560513115     A.U. after   15 cycles
 SCF Done:  E(UPBE1PBE) =  -909.560519438     A.U. after   13 cycles
 SCF Done:  E(UPBE1PBE) =  -909.560522117     A.U. after   12 cycles
 SCF Done:  E(UPBE1PBE) =  -909.560523121     A.U. after   12 cycles
 SCF Done:  E(UPBE1PBE) =  -909.560523292     A.U. after   12 cycles
 SCF Done:  E(UPBE1PBE) =  -909.560523371     A.U. after   11 cycles
 SCF Done:  E(UPBE1PBE) =  -909.560523442     A.U. after   11 cycles
 SCF Done:  E(UPBE1PBE) =  -909.560523499     A.U. after    9 cycles
 SCF Done:  E(UPBE1PBE) =  -909.560523535     A.U. after    8 cycles
 Optimization completed.
    -- Stationary point found.
 Normal termination of Gaussian 16 at Mon Oct 28 06:07:17 2024.

 ----------------------------------------------------------------------
 #N Geom=AllCheck Guess=TCheck SCRF=Check GenChk UPBE1PBE/Aug-CC-pVDZ F
 req
 ----------------------------------------------------------------------

 Structure from the checkpoint file:  "/scr/Gau-46856.chk"
 ----
 blah
 ----
 Charge =  0 Multiplicity = 2

                         Standard orientation:
 ---------------------------------------------------------------------
 Center     Atomic      Atomic             Coordinates (Angstroms)
 Number     Number       Type             X           Y           Z
 ---------------------------------------------------------------------
      1          6           0        2.247794   -0.261358   -0.655645
      2          6           0        1.161232   -1.352967   -0.562620
      3          6           0        0.340327   -0.915068    0.677542
      4          8           0        1.731195   -2.612192   -0.309312
      5          1           0        0.540620   -1.388885   -1.472452
      6          8           0        1.023531    0.172351    1.285741
      7          1           0        0.324679   -1.779570    1.360352
      8          6           0       -1.061572   -0.506741    0.378630
      9          6           0        2.351751    0.257486    0.773872
     10          1           0        1.913785    0.548770   -1.313118
     11          8           0        3.488755   -0.800480   -1.077180
     12          6           0        2.807563    1.696911    0.895327
     13          1           0        3.029138   -0.399652    1.348214
     14          8           0        2.117145    2.568719    0.032322
     15          1           0        3.872951    1.751881    0.630920
     16          1           0        2.703640    2.003852    1.950548
     17          1           0        3.630942   -0.575711   -2.000308
     18          1           0        2.637842   -2.568742   -0.649589
     19          1           0        1.180395    2.326061    0.033463
     20          6           0       -2.163459   -1.266087    0.823676
     21          7           0       -3.428075   -0.987711    0.604844
     22          6           0       -3.731212    0.159397   -0.133756
     23          7           0       -2.674110    0.941431   -0.599110
     24          6           0       -1.334607    0.694162   -0.419470
     25          1           0       -1.964033   -2.168206    1.411044
     26          1           0       -2.925579    1.758733   -1.144378
     27          8           0       -4.877074    0.480273   -0.375495
     28          8           0       -0.475551    1.413956   -0.913598
 ---------------------------------------------------------------------

 SCF Done:  E(UPBE1PBE) =  -909.560523535     A.U. after    1 cycles

 The electronic state is 2-A.
 Alpha  occ. eigenvalues --  -19.27083 -19.26147 -19.24826 -19.24439 -19.24181
 Alpha  occ. eigenvalues --  -19.22193 -14.47931 -14.45456 -10.39686 -10.38961
 Alpha  occ. eigenvalues --  -10.33038 -10.32467 -10.32322 -10.31472 -10.30856
 Alpha  occ. eigenvalues --  -10.30007 -10.28438  -1.14054  -1.12399  -1.11687
 Alpha  occ. eigenvalues --   -1.09900  -1.07370  -1.05456  -1.02605  -0.97637
 Alpha  occ. eigenvalues --   -0.87893  -0.81886  -0.79383  -0.72801  -0.72061
 Alpha  occ. eigenvalues --   -0.69351  -0.65531  -0.63270  -0.60345  -0.60006
 Alpha  occ. eigenvalues --   -0.57870  -0.55641  -0.54481  -0.53469  -0.52921
 Alpha  occ. eigenvalues --   -0.51248  -0.50864  -0.50259  -0.48438  -0.47733
 Alpha  occ. eigenvalues --   -0.46970  -0.45775  -0.45262  -0.43976  -0.42111
 Alpha  occ. eigenvalues --   -0.40848  -0.40621  -0.38651  -0.37248  -0.35970
 Alpha  occ. eigenvalues --   -0.35082  -0.34091  -0.33258  -0.33066  -0.32266
 Alpha  occ. eigenvalues --   -0.31160  -0.30380  -0.29260  -0.28651
 Alpha virt. eigenvalues --   -0.06629  -0.02819  -0.02026  -0.00499   0.00018
 Alpha virt. eigenvalues --    0.00824   0.01938   0.02024   0.02863   0.03262
 Alpha virt. eigenvalues --    0.03739   0.04205   0.05140   0.05759   0.05798

  Beta  occ. eigenvalues --  -19.27071 -19.26076 -19.24520 -19.24437 -19.23680
  Beta  occ. eigenvalues --  -19.22189 -14.47954 -14.44668 -10.39826 -10.39063
  Beta  occ. eigenvalues --  -10.33335 -10.32526 -10.31398 -10.31381 -10.30843
  Beta  occ. eigenvalues --  -10.30007 -10.28437  -1.13530  -1.12155  -1.11139
  Beta  occ. eigenvalues --   -1.09801  -1.07339  -1.05438  -1.01717  -0.96959
  Beta  occ. eigenvalues --   -0.86303  -0.81791  -0.78882  -0.72672  -0.71937
  Beta  occ. eigenvalues --   -0.69051  -0.65350  -0.63142  -0.59997  -0.59704
  Beta  occ. eigenvalues --   -0.57766  -0.55549  -0.54356  -0.53210  -0.51884
  Beta  occ. eigenvalues --   -0.50996  -0.50747  -0.50024  -0.48039  -0.47379
  Beta  occ. eigenvalues --   -0.46607  -0.45126  -0.44075  -0.43851  -0.41973
  Beta  occ. eigenvalues --   -0.40586  -0.38884  -0.37999  -0.37186  -0.35762
  Beta  occ. eigenvalues --   -0.34539  -0.32834  -0.32365  -0.32243  -0.31693
  Beta  occ. eigenvalues --   -0.31022  -0.29919  -0.28699
  Beta virt. eigenvalues --   -0.18544  -0.05370  -0.02105  -0.00919  -0.00390
  Beta virt. eigenvalues --    0.00028   0.00864   0.01961   0.02060   0.02892
  Beta virt. eigenvalues --    0.03293   0.03771   0.04265   0.05179   0.05805

 Mulliken charges and spin densities:
               1          2
     1  C    0.737975   0.009151
     2  C    0.873901   0.044810
     3  C    1.299992  -0.080189
     4  O   -0.687922  -0.000308
     5  H   -0.419184  -0.009647
     6  O   -0.895249   0.011860
     7  H   -0.558185   0.003375
     8  C    0.960833   0.892186
     9  C    0.592237  -0.004910
    10  H   -0.492909  -0.000253
    11  O   -0.629648   0.003608
    12  C    1.213072   0.001157
    13  H   -0.502191  -0.000143
    14  O   -0.524350   0.001172
    15  H   -0.233710   0.000556
    16  H   -0.213558   0.000042
    17  H    0.172653  -0.000218
    18  H    0.164670   0.001925
    19  H    0.178997  -0.001236
    20  C    0.675834  -0.320494
    21  N   -0.592761   0.395077
    22  C    0.782095  -0.089298
    23  N   -0.382724  -0.006428
    24  C    0.453785  -0.148517
    25  H   -0.612831  -0.001492
    26  H   -0.053700  -0.001001
    27  O   -0.554176   0.188854
    28  O   -0.752944   0.110359
 Sum of Mulliken charges =  -0.00000   1.00000

 Dipole moment (field-independent basis, Debye):
    X=              3.2196    Y=             -1.4107    Z=             -1.0254  Tot=              3.6616
 Quadrupole moment (field-independent basis, Debye-Ang):
   XX=           -117.1992   YY=           -107.1554   ZZ=            -91.4470
   XY=             -5.4285   XZ=             -2.8984   YZ=              1.0324

  Exact polarizability:     220.265      -0.014     131.258       1.058      -9.623     109.046
 Approx polarizability:     294.005       2.113     187.222      -1.134     -20.947     165.560

                      1                      2                      3
                      A                      A                      A
 Frequencies --     35.1716                51.6404                56.5083
 Red. masses --      9.5456                 6.6122                 6.3351
 Frc consts  --      0.0070                 0.0104                 0.0119
 IR Inten    --      0.3039                 2.5443                 4.7423

                      4                      5                      6
                      A                      A                      A
 Frequencies --     83.2549               123.3885               125.4884
 Red. masses --      7.2001                 5.0036                 7.4574
 Frc consts  --      0.0294                 0.0449                 0.0692
 IR Inten    --      0.7766                 7.0419                 2.4635

                      7                      8                      9
                      A                      A                      A
 Frequencies --    145.1465               188.3783               212.3591
 Red. masses --      9.3126                 3.4718                 2.1275
 Frc consts  --      0.1156                 0.0726                 0.0565
 IR Inten    --      5.4274                 9.8984                 7.5183

                     10                     11                     12
                      A                      A                      A
 Frequencies --    232.7344               260.8043               276.4432
 Red. masses --      2.6447                 6.6095                 2.9819
 Frc consts  --      0.0844                 0.2649                 0.1343
 IR Inten    --      2.9136                 8.9233                 4.5773

                     13                     14                     15
                      A                      A                      A
 Frequencies --    302.3535               320.3644               327.3613
 Red. masses --      5.1653                 4.7596                 6.8888
 Frc consts  --      0.2782                 0.2878                 0.4350
 IR Inten    --     13.3198                 5.0463                22.8632

                     16                     17                     18
                      A                      A                      A
 Frequencies --    398.3258               405.4750               469.3501
 Red. masses --      2.6415                 9.7222                 3.8385
 Frc consts  --      0.2469                 0.9418                 0.4982
 IR Inten    --      5.8580                24.0395                 8.2567

                     19                     20                     21
                      A                      A                      A
 Frequencies --    479.3293               491.0995               534.2119
 Red. masses --      1.0865                 1.2840                 5.7554
 Frc consts  --      0.1471                 0.1825                 0.9677
 IR Inten    --    174.9765                54.2970                24.4368

                     22                     23                     24
                      A                      A                      A
 Frequencies --    563.5148               578.9932               612.2193
 Red. masses --      5.5230                 6.5253                 7.6222
 Frc consts  --      1.0333                 1.2888                 1.6832
 IR Inten    --      3.5599                36.2658                 3.8134

                     25                     26                     27
                      A                      A                      A
 Frequencies --    632.3003               706.6019               719.6325
 Red. masses --      4.7608                 5.2798                 1.2224
 Frc consts  --      1.1214                 1.5532                 0.3730
 IR Inten    --      3.9889                13.3408                64.3879

                     28                     29                     30
                      A                      A                      A
 Frequencies --    740.0331               745.6482               770.5954
 Red. masses --      4.7789                 8.5252                 6.7542
 Frc consts  --      1.5420                 2.7927                 2.3631
 IR Inten    --      1.9384                 0.9312                 6.4920

                     31                     32                     33
                      A                      A                      A
 Frequencies --    802.7833               863.6736               879.7485
 Red. masses --      9.3365                 4.3914                 3.1561
 Frc consts  --      3.5451                 1.9300                 1.4392
 IR Inten    --     36.1050                 6.8939                 1.6143

                     34                     35                     36
                      A                      A                      A
 Frequencies --    897.6470               947.6823               973.1944
 Red. masses --      2.4075                 3.7532                 2.0662
 Frc consts  --      1.1430                 1.9860                 1.1530
 IR Inten    --     30.7076                12.7120                 9.6093

                     37                     38                     39
                      A                      A                      A
 Frequencies --    980.3921              1013.9365              1064.7861
 Red. masses --      1.8900                 2.6077                 2.9844
 Frc consts  --      1.0703                 1.5795                 1.9936
 IR Inten    --     16.7572                27.7633                19.4835

                     40                     41                     42
                      A                      A                      A
 Frequencies --   1077.4553              1106.6960              1129.5725
 Red. masses --      2.6886                 2.7223                 4.4206
 Frc consts  --      1.8390                 1.9644                 3.3232
 IR Inten    --     80.0084                86.6104                70.1401

                     43                     44                     45
                      A                      A                      A
 Frequencies --   1153.8088              1161.2639              1199.2370
 Red. masses --      2.6187                 3.5349                 1.3547
 Frc consts  --      2.0540                 2.8086                 1.1479
 IR Inten    --     58.2809               146.8613                87.2264

                     46                     47                     48
                      A                      A                      A
 Frequencies --   1227.7279              1230.4461              1253.3008
 Red. masses --      2.0816                 1.3031                 1.4655
 Frc consts  --      1.8487                 1.1624                 1.3563
 IR Inten    --     52.7811                15.3788                 9.1675

                     49                     50                     51
                      A                      A                      A
 Frequencies --   1254.4651              1263.9238              1288.5562
 Red. masses --      1.6932                 2.3508                 1.5953
 Frc consts  --      1.5699                 2.2126                 1.5606
 IR Inten    --     27.3959                19.0436                36.5655

                     52                     53                     54
                      A                      A                      A
 Frequencies --   1304.8949              1326.9884              1341.9833
 Red. masses --      1.3572                 1.3027                 1.4086
 Frc consts  --      1.3616                 1.3516                 1.4946
 IR Inten    --     21.1860                 0.2524                 2.8566

                     55                     56                     57
                      A                      A                      A
 Frequencies --   1360.6138              1370.4336              1377.2385
 Red. masses --      1.3558                 1.2882                 1.9494
 Frc consts  --      1.4789                 1.4255                 2.1785
 IR Inten    --      1.5039                58.2424                34.2804

                     58                     59                     60
                      A                      A                      A
 Frequencies --   1383.0398              1408.9465              1415.6624
 Red. masses --      2.0627                 2.3239                 1.8672
 Frc consts  --      2.3246                 2.7180                 2.2047
 IR Inten    --     18.9499                36.1577                18.2828

                     61                     62                     63
                      A                      A                      A
 Frequencies --   1430.6466              1450.6334              1460.0914
 Red. masses --      1.3753                 1.7164                 3.0392
 Frc consts  --      1.6585                 2.1281                 3.8174
 IR Inten    --     24.9539                 6.2426                68.4708

                     64                     65                     66
                      A                      A                      A
 Frequencies --   1476.5326              1513.8861              1735.6948
 Red. masses --      1.0807                 4.8159                 7.7924
 Frc consts  --      1.3881                 6.5030                13.8314
 IR Inten    --      3.7541                35.1057               494.8806

                     67                     68                     69
                      A                      A                      A
 Frequencies --   1743.7579              3021.4761              3034.2028
 Red. masses --     12.8559                 1.0732                 1.0782
 Frc consts  --     23.0316                 5.7725                 5.8487
 IR Inten    --     65.9010                15.6710                81.4035

                     70                     71                     72
                      A                      A                      A
 Frequencies --   3041.2264              3052.1276              3107.8017
 Red. masses --      1.0861                 1.0852                 1.0972
 Frc consts  --      5.9187                 5.9559                 6.2435
 IR Inten    --     27.8054                18.7955                21.5177

                     73                     74                     75
                      A                      A                      A
 Frequencies --   3132.5524              3162.5044              3611.6425
 Red. masses --      1.0878                 1.0917                 1.0779
 Frc consts  --      6.2894                 6.4330                 8.2842
 IR Inten    --      4.2333                 6.0991                75.4180

                     76                     77                     78
                      A                      A                      A
 Frequencies --   3742.2594              3772.9733              3893.9661
 Red. masses --      1.0651                 1.0667                 1.0671
 Frc consts  --      8.7887                 8.9470                 9.5336
 IR Inten    --    102.8095               199.9931                80.6460

 - Thermochemistry -
 -------------------
 Temperature   298.150 Kelvin.  Pressure   1.00000 Atm.
 Atom     1 has atomic number  6 and mass  12.00000

 Molecular mass:   243.06171 amu.
 Principal axes and moments of inertia in atomic units:
                           1         2         3
     Eigenvalues --  1971.783296005.319937010.07977
           X            0.99999   0.00320   0.00042
           Y           -0.00321   0.99999   0.00427
           Z           -0.00041  -0.00428   0.99999
 This molecule is an asymmetric top.
 Rotational symmetry number  1.
 Warning -- assumption of classical behavior for rotation
           may cause significant error
 Rotational temperatures (Kelvin)      0.04393     0.01442     0.01236
 Rotational constants (GHZ):           0.91528     0.30052     0.25745
 Zero-point vibrational energy     562441.1 (Joules/Mol)
                                  134.42664 (Kcal/Mol)
 Warning -- explicit consideration of  24 degrees of freedom as
           vibrations may cause significant error
 Vibrational temperatures:     50.60    74.30    81.30   119.79   177.53
          (Kelvin)            180.55   208.83   271.03   305.54   334.85
                              375.24   397.74   435.02   460.93   471.00
                              573.10   583.39   675.29   689.65   706.58
                              768.61   810.77   833.04   880.85   909.74
                             1016.64  1035.39  1064.74  1072.82  1108.71
                             1155.03  1242.63  1265.76  1291.51  1363.50
                             1400.21  1410.57  1458.83  1531.99  1550.22
                             1592.29  1625.20  1660.07  1670.80  1725.43
                             1766.43  1770.34  1803.22  1804.90  1818.50
                             1853.94  1877.45  1909.24  1930.81  1957.62
                             1971.75  1981.54  1989.89  2027.16  2036.82
                             2058.38  2087.14  2100.75  2124.40  2178.14
                             2497.28  2508.88  4347.23  4365.54  4375.65
                             4391.33  4471.43  4507.04  4550.14  5196.35
                             5384.28  5428.47  5602.55

 Zero-point correction=                           0.214222 (Hartree/Particle)
 Thermal correction to Energy=                    0.229566
 Thermal correction to Enthalpy=                  0.230510
 Thermal correction to Gibbs Free Energy=         0.170161
 Sum of electronic and zero-point Energies=           -909.346301
 Sum of electronic and thermal Energies=              -909.330958
 Sum of electronic and thermal Enthalpies=            -909.330013
 Sum of electronic and thermal Free Energies=         -909.390362

                     E (Thermal)             CV                S
                      KCal/Mol        Cal/Mol-Kelvin    Cal/Mol-Kelvin
 Total                  144.055             57.686            127.015
 Electronic               0.000              0.000              1.377
 Translational            0.889              2.981             42.365
 Rotational               0.889              2.981             32.784
 Vibrational            142.277             51.724             50.488
 Vibration     1          0.594              1.982              5.514
 Vibration     2          0.596              1.977              4.754
 Vibration     3          0.596              1.975              4.576
 Vibration     4          0.600              1.961              3.813
 Vibration     5          0.610              1.930              3.047
 Vibration     6          0.610              1.928              3.014
 Vibration     7          0.617              1.908              2.735
 Vibration     8          0.633              1.856              2.244
 Vibration     9          0.643              1.822              2.023
 Vibration    10          0.653              1.791              1.858
 Vibration    11          0.669              1.744              1.656
 Vibration    12          0.678              1.717              1.556
 Vibration    13          0.694              1.669              1.404
 Vibration    14          0.706              1.635              1.308
 Vibration    15          0.711              1.621              1.273
 Vibration    16          0.765              1.474              0.969
 Vibration    17          0.770              1.458              0.943
 Vibration    18          0.826              1.318              0.739
 Vibration    19          0.836              1.296              0.712
 Vibration    20          0.847              1.270              0.681
 Vibration    21          0.889              1.174              0.578
 Vibration    22          0.919              1.110              0.517
 Vibration    23          0.936              1.077              0.487
 Vibration    24          0.971              1.006              0.429

 Optimization completed.
    -- Stationary point found.
 Normal termination of Gaussian 16 at Mon Oct 28 06:33:12 2024.
