 Gaussian 16, Revision C.01,
 Gaussian 16:  EM64L-G16RevC.01  3-Jul-2019

 ------------------------------------------------------
 # PBE1PBE/aug-cc-pVDZ opt freq EmpiricalDispersion=GD3
 ------------------------------------------------------

 ----
 blah
 ----
 Symbolic Z-matrix:
 Charge = -1 Multiplicity = 1

 SCF Done:  E(RPBE1PBE) =  -909.666287207     A.U. after   16 cycles
 SCF Done:  E(RPBE1PBE) =  -909.676868943     A.U. after   13 cycles
 SCF Done:  E(RPBE1PBE) =  -909.669198296     A.U. after   15 cycles
 SCF Done:  E(RPBE1PBE) =  -909.677483007     A.U. after   13 cycles
 SCF Done:  E(RPBE1PBE) =  -909.679020112     A.U. after   13 cycles
 SCF Done:  E(RPBE1PBE) =  -909.680892692     A.U. after   12 cycles
 SCF Done:  E(RPBE1PBE) =  -909.679185898     A.U. after   13 cycles
 SCF Done:  E(RPBE1PBE) =  -909.681223252     A.U. after   11 cycles
 SCF Done:  E(RPBE1PBE) =  -909.681199936     A.U. after   12 cycles
 SCF Done:  E(RPBE1PBE) =  -909.681315570     A.U. after   11 cycles
 SCF Done:  E(RPBE1PBE) =  -909.681321597     A.U. after   10 cycles
 SCF Done:  E(RPBE1PBE) =  -909.681328252     A.U. after    9 cycles
 SCF Done:  E(RPBE1PBE) =  -909.681331352     A.U. after    9 cycles
 SCF Done:  E(RPBE1PBE) =  -909.681333205     A.U. after   10 cycles
 SCF Done:  E(RPBE1PBE) =  -909.681333597     A.U. after    8 cycles
 SCF Done:  E(RPBE1PBE) =  -909.681333771     A.U. after    8 cycles
 SCF Done:  E(RPBE1PBE) =  -909.681333835     A.U. after    8 cycles
 Optimization completed.
    -- Stationary point found.
 Normal termination of Gaussian 16 at Sun Oct 27 04:11:54 2024.

 ----------------------------------------------------------------------
 #N Geom=AllCheck Guess=TCheck SCRF=Check GenChk RPBE1PBE/Aug-CC-pVDZ F
 req
 ----------------------------------------------------------------------

 Structure from the checkpoint file:  "/scr/Gau-56799.chk"
 ----
 blah
 ----
 Charge = -1 Multiplicity = 1

                         Standard orientation:
 ---------------------------------------------------------------------
 Center     Atomic      Atomic             Coordinates (Angstroms)
 Number     Number       Type             X           Y           Z
 ---------------------------------------------------------------------
      1          6           0        2.221190   -0.175996   -0.656302
      2          6           0        1.229593   -1.342391   -0.577028
      3          6           0        0.362658   -1.008283    0.647767
      4          8           0        1.929026   -2.558861   -0.346553
      5          1           0        0.615084   -1.424845   -1.485728
      6          8           0        1.074055   -0.005963    1.392780
      7          1           0        0.320365   -1.927019    1.257172
      8          6           0       -1.033502   -0.558964    0.363970
      9          6           0        2.315760    0.306901    0.788404
     10          1           0        1.811830    0.613768   -1.291892
     11          8           0        3.512265   -0.593195   -1.117442
     12          6           0        2.571857    1.797242    0.935287
     13          1           0        3.136468   -0.246741    1.286887
     14          8           0        1.774245    2.609409    0.119053
     15          1           0        3.628869    1.990231    0.681545
     16          1           0        2.437887    2.046648    2.005614
     17          1           0        3.568645   -0.376538   -2.050982
     18          1           0        2.823289   -2.401433   -0.683134
     19          1           0        0.926925    2.151086   -0.094888
     20          6           0       -2.092877   -1.238260    0.861025
     21          7           0       -3.357957   -0.840038    0.574552
     22          6           0       -3.638557    0.271910   -0.258665
     23          7           0       -2.594183    0.971753   -0.744271
     24          6           0       -1.318278    0.627731   -0.466085
     25          1           0       -1.982620   -2.119147    1.497234
     26          1           0       -4.164734   -1.333490    0.923776
     27          8           0       -4.835314    0.508229   -0.466874
     28          8           0       -0.349786    1.293648   -0.916940
 ---------------------------------------------------------------------

 SCF Done:  E(RPBE1PBE) =  -909.681333835     A.U. after    1 cycles

 The electronic state is 1-A.
 Alpha  occ. eigenvalues --  -19.15448 -19.12141 -19.11523 -19.08207 -19.03746
 Alpha  occ. eigenvalues --  -19.03373 -14.31391 -14.22040 -10.20543 -10.18135
 Alpha  occ. eigenvalues --  -10.17801 -10.17487 -10.17410 -10.17189 -10.16871
 Alpha  occ. eigenvalues --  -10.16051 -10.10884  -0.99074  -0.96272  -0.94514
 Alpha  occ. eigenvalues --   -0.93205  -0.91588  -0.89905  -0.84670  -0.75916
 Alpha  occ. eigenvalues --   -0.70801  -0.68721  -0.64785  -0.58167  -0.53728
 Alpha  occ. eigenvalues --   -0.51493  -0.50705  -0.49368  -0.46089  -0.44248
 Alpha  occ. eigenvalues --   -0.42861  -0.41902  -0.39921  -0.37772  -0.37018
 Alpha  occ. eigenvalues --   -0.36788  -0.34768  -0.33711  -0.32730  -0.31641
 Alpha  occ. eigenvalues --   -0.30822  -0.29901  -0.28874  -0.27760  -0.27120
 Alpha  occ. eigenvalues --   -0.26295  -0.25368  -0.23658  -0.22636  -0.22449
 Alpha  occ. eigenvalues --   -0.19964  -0.18504  -0.16683  -0.15348  -0.14469
 Alpha  occ. eigenvalues --   -0.12668  -0.11516  -0.11365  -0.10479
 Alpha virt. eigenvalues --    0.07136   0.08300   0.09116   0.10058   0.10824
 Alpha virt. eigenvalues --    0.11269   0.11561   0.12089   0.12441   0.13323
 Alpha virt. eigenvalues --    0.14145   0.14800   0.15185   0.15594   0.15931

 Mulliken charges:
               1
     1  C    0.791667
     2  C    0.897973
     3  C    0.955780
     4  O   -0.709881
     5  H   -0.406823
     6  O   -0.909049
     7  H   -0.580367
     8  C    1.079120
     9  C    0.643044
    10  H   -0.569508
    11  O   -0.659579
    12  C    1.190355
    13  H   -0.500600
    14  O   -0.575081
    15  H   -0.257814
    16  H   -0.231035
    17  H    0.158154
    18  H    0.144822
    19  H    0.252647
    20  C    1.175087
    21  N   -0.580034
    22  C    0.725753
    23  N   -0.620152
    24  C    0.109077
    25  H   -0.729443
    26  H   -0.119337
    27  O   -0.743067
    28  O   -0.931709
 Sum of Mulliken charges =  -1.00000

 Dipole moment (field-independent basis, Debye):
    X=              7.5981    Y=             -6.4442    Z=              2.0389  Tot=             10.1693
 Quadrupole moment (field-independent basis, Debye-Ang):
   XX=           -152.0523   YY=           -122.9436   ZZ=           -101.5828
   XY=             14.6923   XZ=            -17.6157   YZ=              3.2552

  Exact polarizability:     212.455       6.517     141.325      -1.462     -11.273     120.705
 Approx polarizability:     277.953      15.015     201.759      -7.803     -24.997     182.547

                      1                      2                      3
                      A                      A                      A
 Frequencies --     46.4950                63.4555                77.8551
 Red. masses --      8.0082                 6.9809                 6.8542
 Frc consts  --      0.0102                 0.0166                 0.0245
 IR Inten    --      0.0575                10.1365                 4.7516

                      4                      5                      6
                      A                      A                      A
 Frequencies --    113.6349               124.5025               145.8119
 Red. masses --      4.7922                 7.7601                 6.6984
 Frc consts  --      0.0365                 0.0709                 0.0839
 IR Inten    --      8.5477                16.6996                 9.2280

                      7                      8                      9
                      A                      A                      A
 Frequencies --    177.0935               206.2231               231.8566
 Red. masses --      7.7119                 8.4227                 1.5122
 Frc consts  --      0.1425                 0.2110                 0.0479
 IR Inten    --      0.2074                 1.8247                12.3920

                     10                     11                     12
                      A                      A                      A
 Frequencies --    236.4760               265.1582               278.3879
 Red. masses --      3.3089                 6.1351                 3.0984
 Frc consts  --      0.1090                 0.2541                 0.1415
 IR Inten    --      0.1962                 2.5985                18.5682

                     13                     14                     15
                      A                      A                      A
 Frequencies --    313.2701               324.4610               353.9956
 Red. masses --      5.9497                 7.4938                 3.6840
 Frc consts  --      0.3440                 0.4648                 0.2720
 IR Inten    --      7.2464                17.9646                 5.3943

                     16                     17                     18
                      A                      A                      A
 Frequencies --    401.2017               427.0380               467.7656
 Red. masses --      2.8219                10.2569                 4.6459
 Frc consts  --      0.2676                 1.1020                 0.5989
 IR Inten    --      7.2392                12.4853                 6.7424

                     19                     20                     21
                      A                      A                      A
 Frequencies --    520.4070               561.0962               570.9665
 Red. masses --      1.1885                 6.3009                 7.3080
 Frc consts  --      0.1896                 1.1688                 1.4037
 IR Inten    --     94.2012                12.0187                 8.9787

                     22                     23                     24
                      A                      A                      A
 Frequencies --    582.7596               594.4640               603.1951
 Red. masses --      1.2217                 4.7858                 6.4086
 Frc consts  --      0.2445                 0.9965                 1.3738
 IR Inten    --     65.3603                22.6744                34.0731

                     25                     26                     27
                      A                      A                      A
 Frequencies --    645.9051               721.1151               743.6548
 Red. masses --      4.4665                 4.8907                 1.1003
 Frc consts  --      1.0979                 1.4984                 0.3585
 IR Inten    --      2.7013                 7.2472                88.9474

                     28                     29                     30
                      A                      A                      A
 Frequencies --    750.4061               779.8206               792.0111
 Red. masses --      6.3111                 6.2898                12.1188
 Frc consts  --      2.0939                 2.2536                 4.4789
 IR Inten    --      1.1592                 4.2423                10.2817

                     31                     32                     33
                      A                      A                      A
 Frequencies --    826.8684               863.7882               884.5636
 Red. masses --      8.1198                 5.1128                 3.7381
 Frc consts  --      3.2709                 2.2476                 1.7233
 IR Inten    --     15.9935                25.2766                 2.3695

                     34                     35                     36
                      A                      A                      A
 Frequencies --    897.7964               918.8432               966.9871
 Red. masses --      2.0922                 1.5333                 3.8263
 Frc consts  --      0.9936                 0.7627                 2.1080
 IR Inten    --     26.2441                 8.0448                30.8119

                     37                     38                     39
                      A                      A                      A
 Frequencies --    975.7989              1022.0716              1055.1396
 Red. masses --      4.0863                 2.4320                 2.8674
 Frc consts  --      2.2925                 1.4968                 1.8809
 IR Inten    --     24.6749                75.5775                10.3789

                     40                     41                     42
                      A                      A                      A
 Frequencies --   1069.9011              1097.0725              1118.9524
 Red. masses --      2.8808                 2.7519                 3.3906
 Frc consts  --      1.9429                 1.9514                 2.5012
 IR Inten    --    129.9567                14.6873                66.4635

                     43                     44                     45
                      A                      A                      A
 Frequencies --   1151.2002              1169.2334              1177.5838
 Red. masses --      2.7668                 1.5963                 2.9723
 Frc consts  --      2.1604                 1.2858                 2.4285
 IR Inten    --     91.4173                28.1107               117.2032

                     46                     47                     48
                      A                      A                      A
 Frequencies --   1205.1456              1243.0591              1255.5457
 Red. masses --      1.3582                 1.3004                 1.8027
 Frc consts  --      1.1622                 1.1839                 1.6743
 IR Inten    --     68.0016                 4.0409                21.5676

                     49                     50                     51
                      A                      A                      A
 Frequencies --   1272.4906              1283.2695              1304.2337
 Red. masses --      1.1444                 1.4607                 1.4777
 Frc consts  --      1.0918                 1.4172                 1.4810
 IR Inten    --     26.4507                 9.2233                45.1826

                     52                     53                     54
                      A                      A                      A
 Frequencies --   1305.5730              1329.5469              1339.1933
 Red. masses --      1.4224                 1.4444                 5.2783
 Frc consts  --      1.4285                 1.5044                 5.5774
 IR Inten    --      1.3839                19.3325                35.2868

                     55                     56                     57
                      A                      A                      A
 Frequencies --   1343.4625              1347.5178              1363.5683
 Red. masses --      1.5643                 1.5536                 1.2947
 Frc consts  --      1.6635                 1.6621                 1.4183
 IR Inten    --     62.0318                11.6821                18.7072

                     58                     59                     60
                      A                      A                      A
 Frequencies --   1383.0157              1393.7533              1408.9823
 Red. masses --      2.9035                 1.4991                 1.8174
 Frc consts  --      3.2721                 1.7157                 2.1258
 IR Inten    --     33.2733                79.8994                52.2687

                     61                     62                     63
                      A                      A                      A
 Frequencies --   1440.1661              1469.7296              1476.0635
 Red. masses --      1.5602                 1.2833                 1.0907
 Frc consts  --      1.9065                 1.6333                 1.4001
 IR Inten    --     36.3229                41.7653                 3.0752

                     64                     65                     66
                      A                      A                      A
 Frequencies --   1509.3297              1594.1727              1721.9668
 Red. masses --      4.8824                 8.8803                 6.9379
 Frc consts  --      6.5531                13.2969                12.1207
 IR Inten    --     73.2078              1059.9783                97.2523

                     67                     68                     69
                      A                      A                      A
 Frequencies --   1740.8125              2969.0039              2987.2336
 Red. masses --      9.1244                 1.0750                 1.0731
 Frc consts  --     16.2913                 5.5832                 5.6421
 IR Inten    --   1089.5865                29.6300               186.1933

                     70                     71                     72
                      A                      A                      A
 Frequencies --   3024.8197              3037.1154              3065.1680
 Red. masses --      1.0850                 1.0962                 1.0870
 Frc consts  --      5.8492                 5.9576                 6.0170
 IR Inten    --     48.8745                91.4814                35.1561

                     73                     74                     75
                      A                      A                      A
 Frequencies --   3157.6479              3180.5792              3380.0493
 Red. masses --      1.0884                 1.0933                 1.0727
 Frc consts  --      6.3937                 6.5161                 7.2209
 IR Inten    --      2.3236                22.7514              1053.8851

                     76                     77                     78
                      A                      A                      A
 Frequencies --   3673.0186              3747.6040              3898.5859
 Red. masses --      1.0785                 1.0651                 1.0667
 Frc consts  --      8.5728                 8.8133                 9.5526
 IR Inten    --     42.7611                83.3005                43.2572

 - Thermochemistry -
 -------------------
 Temperature   298.150 Kelvin.  Pressure   1.00000 Atm.
 Atom     1 has atomic number  6 and mass  12.00000

 Molecular mass:   243.06171 amu.
 Principal axes and moments of inertia in atomic units:
                           1         2         3
     Eigenvalues --  1979.303465874.738086797.20304
           X            0.99990   0.01323  -0.00544
           Y           -0.01319   0.99989   0.00672
           Z            0.00553  -0.00665   0.99996
 This molecule is an asymmetric top.
 Rotational symmetry number  1.
 Warning -- assumption of classical behavior for rotation
           may cause significant error
 Rotational temperatures (Kelvin)      0.04376     0.01474     0.01274
 Rotational constants (GHZ):           0.91181     0.30720     0.26551
 Zero-point vibrational energy     563248.0 (Joules/Mol)
                                  134.61950 (Kcal/Mol)
 Warning -- explicit consideration of  24 degrees of freedom as
           vibrations may cause significant error
 Vibrational temperatures:     66.90    91.30   112.02   163.50   179.13
          (Kelvin)            209.79   254.80   296.71   333.59   340.24
                              381.50   400.54   450.73   466.83   509.32
                              577.24   614.41   673.01   748.75   807.29
                              821.49   838.46   855.30   867.86   929.31
                             1037.52  1069.95  1079.67  1121.99  1139.53
                             1189.68  1242.80  1272.69  1291.73  1322.01
                             1391.28  1403.96  1470.53  1518.11  1539.35
                             1578.44  1609.92  1656.32  1682.27  1694.28
                             1733.94  1788.48  1806.45  1830.83  1846.34
                             1876.50  1878.43  1912.92  1926.80  1932.94
                             1938.78  1961.87  1989.85  2005.30  2027.21
                             2072.08  2114.61  2123.73  2171.59  2293.66
                             2477.53  2504.64  4271.73  4297.96  4352.04
                             4369.73  4410.09  4543.15  4576.14  4863.14
                             5284.65  5391.97  5609.20

 Zero-point correction=                           0.214530 (Hartree/Particle)
 Thermal correction to Energy=                    0.229330
 Thermal correction to Enthalpy=                  0.230274
 Thermal correction to Gibbs Free Energy=         0.172536
 Sum of electronic and zero-point Energies=           -909.466804
 Sum of electronic and thermal Energies=              -909.452004
 Sum of electronic and thermal Enthalpies=            -909.451060
 Sum of electronic and thermal Free Energies=         -909.508798

                     E (Thermal)             CV                S
                      KCal/Mol        Cal/Mol-Kelvin    Cal/Mol-Kelvin
 Total                  143.907             56.793            121.521
 Electronic               0.000              0.000              0.000
 Translational            0.889              2.981             42.365
 Rotational               0.889              2.981             32.736
 Vibrational            142.129             50.831             46.420
 Vibration     1          0.595              1.979              4.961
 Vibration     2          0.597              1.972              4.347
 Vibration     3          0.599              1.964              3.944
 Vibration     4          0.607              1.938              3.206
 Vibration     5          0.610              1.928              3.029
 Vibration     6          0.617              1.907              2.726
 Vibration     7          0.628              1.871              2.359
 Vibration     8          0.641              1.831              2.077
 Vibration     9          0.653              1.792              1.865
 Vibration    10          0.655              1.785              1.829
 Vibration    11          0.671              1.737              1.628
 Vibration    12          0.679              1.713              1.544
 Vibration    13          0.701              1.648              1.345
 Vibration    14          0.709              1.627              1.288
 Vibration    15          0.730              1.567              1.148
 Vibration    16          0.767              1.468              0.958
 Vibration    17          0.789              1.411              0.868
 Vibration    18          0.825              1.322              0.744
 Vibration    19          0.875              1.205              0.609
 Vibration    20          0.917              1.115              0.522
 Vibration    21          0.927              1.094              0.502
 Vibration    22          0.940              1.069              0.480
 Vibration    23          0.952              1.044              0.459
 Vibration    24          0.962              1.025              0.444

                           ! Non-Optimized Parameters !
 Normal termination of Gaussian 16 at Sun Oct 27 04:27:04 2024.
