 Gaussian 16, Revision C.01,
 Gaussian 16:  EM64L-G16RevC.01  3-Jul-2019

 ------------------------------------------------------
 # PBE1PBE/aug-cc-pVDZ opt freq EmpiricalDispersion=GD3
 ------------------------------------------------------

 ----
 blah
 ----
 Symbolic Z-matrix:
 Charge =  0 Multiplicity = 2

 SCF Done:  E(UPBE1PBE) =  -909.517222281     A.U. after   33 cycles
 SCF Done:  E(UPBE1PBE) =  -909.518859016     A.U. after   30 cycles
 SCF Done:  E(UPBE1PBE) =  -909.520285376     A.U. after   25 cycles
 SCF Done:  E(UPBE1PBE) =  -909.521776246     A.U. after   25 cycles
 SCF Done:  E(UPBE1PBE) =  -909.522872073     A.U. after   23 cycles
 SCF Done:  E(UPBE1PBE) =  -909.523543175     A.U. after   21 cycles
 SCF Done:  E(UPBE1PBE) =  -909.523521581     A.U. after   20 cycles
 SCF Done:  E(UPBE1PBE) =  -909.523992924     A.U. after   20 cycles
 SCF Done:  E(UPBE1PBE) =  -909.524182059     A.U. after   21 cycles
 SCF Done:  E(UPBE1PBE) =  -909.524362005     A.U. after   21 cycles
 SCF Done:  E(UPBE1PBE) =  -909.525331005     A.U. after   14 cycles
 SCF Done:  E(UPBE1PBE) =  -909.525863838     A.U. after   20 cycles
 SCF Done:  E(UPBE1PBE) =  -909.525942578     A.U. after   19 cycles
 SCF Done:  E(UPBE1PBE) =  -909.526015607     A.U. after   20 cycles
 SCF Done:  E(UPBE1PBE) =  -909.526023631     A.U. after   17 cycles
 SCF Done:  E(UPBE1PBE) =  -909.526027819     A.U. after   17 cycles
 SCF Done:  E(UPBE1PBE) =  -909.526028878     A.U. after   14 cycles
 SCF Done:  E(UPBE1PBE) =  -909.526029346     A.U. after   13 cycles
 SCF Done:  E(UPBE1PBE) =  -909.526029458     A.U. after   14 cycles
 Optimization completed.
    -- Stationary point found.
 Normal termination of Gaussian 16 at Mon Oct 28 09:59:01 2024.

 ----------------------------------------------------------------------
 #N Geom=AllCheck Guess=TCheck SCRF=Check GenChk UPBE1PBE/Aug-CC-pVDZ F
 req
 ----------------------------------------------------------------------

 Structure from the checkpoint file:  "/scr/Gau-32132.chk"
 ----
 blah
 ----
 Charge =  0 Multiplicity = 2

                         Standard orientation:
 ---------------------------------------------------------------------
 Center     Atomic      Atomic             Coordinates (Angstroms)
 Number     Number       Type             X           Y           Z
 ---------------------------------------------------------------------
      1          6           0        2.229839   -0.247119   -0.669564
      2          6           0        1.156850   -1.345043   -0.567302
      3          6           0        0.340049   -0.922560    0.669746
      4          8           0        1.749968   -2.597759   -0.312921
      5          1           0        0.529335   -1.394805   -1.472065
      6          8           0        1.048705    0.130661    1.311184
      7          1           0        0.299976   -1.801527    1.334885
      8          6           0       -1.066269   -0.477679    0.399187
      9          6           0        2.362444    0.242943    0.768311
     10          1           0        1.873229    0.573480   -1.302558
     11          8           0        3.467715   -0.763182   -1.132511
     12          6           0        2.809194    1.683298    0.911372
     13          1           0        3.061219   -0.419065    1.310758
     14          8           0        2.094906    2.570111    0.084621
     15          1           0        3.868839    1.752790    0.627081
     16          1           0        2.725164    1.964703    1.975847
     17          1           0        3.584322   -0.513417   -2.052618
     18          1           0        2.638085   -2.554275   -0.697825
     19          1           0        1.162426    2.309718    0.082010
     20          6           0       -2.127847   -1.037271    1.038302
     21          7           0       -3.413149   -0.691587    0.753135
     22          6           0       -3.695713    0.200644   -0.275803
     23          7           0       -2.610578    0.574874   -1.038034
     24          6           0       -1.317558    0.646912   -0.521430
     25          1           0       -1.990130   -1.778734    1.825104
     26          1           0       -4.186969   -0.964978    1.343454
     27          8           0       -4.821110    0.606687   -0.496949
     28          8           0       -0.483353    1.450775   -0.890510
 ---------------------------------------------------------------------

 SCF Done:  E(UPBE1PBE) =  -909.526029458     A.U. after    1 cycles

 The electronic state is 2-A.
 Alpha  occ. eigenvalues --  -19.26105 -19.25178 -19.24950 -19.23693 -19.23522
 Alpha  occ. eigenvalues --  -19.21175 -14.49643 -14.48532 -10.40980 -10.38104
 Alpha  occ. eigenvalues --  -10.34564 -10.31506 -10.30088 -10.29788 -10.29189
 Alpha  occ. eigenvalues --  -10.29017 -10.27530  -1.14698  -1.11520  -1.10765
 Alpha  occ. eigenvalues --   -1.08770  -1.06322  -1.04723  -1.04404  -0.97826
 Alpha  occ. eigenvalues --   -0.87305  -0.80859  -0.79339  -0.72772  -0.71361
 Alpha  occ. eigenvalues --   -0.69809  -0.65147  -0.62386  -0.61306  -0.60038
 Alpha  occ. eigenvalues --   -0.57215  -0.54618  -0.54068  -0.53068  -0.52589
 Alpha  occ. eigenvalues --   -0.50715  -0.49900  -0.49673  -0.49383  -0.48174
 Alpha  occ. eigenvalues --   -0.45516  -0.45123  -0.44247  -0.42997  -0.41563
 Alpha  occ. eigenvalues --   -0.40943  -0.39596  -0.38104  -0.37630  -0.36306
 Alpha  occ. eigenvalues --   -0.35118  -0.34604  -0.33484  -0.32280  -0.31833
 Alpha  occ. eigenvalues --   -0.30141  -0.29351  -0.28408  -0.27584
 Alpha virt. eigenvalues --   -0.07083  -0.02447  -0.02160  -0.01369   0.00477
 Alpha virt. eigenvalues --    0.01331   0.01365   0.02192   0.03086   0.03972
 Alpha virt. eigenvalues --    0.04037   0.04116   0.04832   0.05162   0.05862

  Beta  occ. eigenvalues --  -19.26104 -19.24924 -19.24660 -19.23634 -19.23523
  Beta  occ. eigenvalues --  -19.21176 -14.49618 -14.46921 -10.41123 -10.38160
  Beta  occ. eigenvalues --  -10.34468 -10.31487 -10.30081 -10.29787 -10.29046
  Beta  occ. eigenvalues --  -10.29017 -10.27530  -1.13726  -1.11337  -1.10576
  Beta  occ. eigenvalues --   -1.08736  -1.06320  -1.04453  -1.04062  -0.95038
  Beta  occ. eigenvalues --   -0.86820  -0.80845  -0.79197  -0.72356  -0.70768
  Beta  occ. eigenvalues --   -0.69396  -0.64909  -0.62325  -0.60818  -0.59794
  Beta  occ. eigenvalues --   -0.57142  -0.54565  -0.53828  -0.52564  -0.51941
  Beta  occ. eigenvalues --   -0.50366  -0.49744  -0.49486  -0.48753  -0.47686
  Beta  occ. eigenvalues --   -0.45352  -0.44880  -0.43952  -0.42905  -0.40923
  Beta  occ. eigenvalues --   -0.40264  -0.39548  -0.37698  -0.36178  -0.35430
  Beta  occ. eigenvalues --   -0.34688  -0.32483  -0.32154  -0.31505  -0.30099
  Beta  occ. eigenvalues --   -0.28938  -0.28358  -0.27607
  Beta virt. eigenvalues --   -0.19187  -0.05928  -0.02360  -0.01694  -0.01345
  Beta virt. eigenvalues --    0.00512   0.01357   0.01425   0.02210   0.03113
  Beta virt. eigenvalues --    0.04031   0.04086   0.04322   0.04856   0.05269

 Mulliken charges and spin densities:
               1          2
     1  C    0.735362   0.000543
     2  C    0.894565   0.011178
     3  C    0.914408  -0.011697
     4  O   -0.700931  -0.001074
     5  H   -0.415048   0.001540
     6  O   -0.900552   0.007215
     7  H   -0.558589   0.011208
     8  C    1.184504   0.070906
     9  C    0.621875   0.000761
    10  H   -0.501063  -0.000125
    11  O   -0.643324   0.000079
    12  C    1.219877  -0.000141
    13  H   -0.503188   0.000442
    14  O   -0.526749   0.000066
    15  H   -0.241430  -0.000132
    16  H   -0.210437   0.000013
    17  H    0.175857  -0.000035
    18  H    0.163609  -0.000068
    19  H    0.186037   0.000273
    20  C    1.026981   0.067058
    21  N   -0.460512   0.015131
    22  C    0.830372  -0.129051
    23  N   -0.545055   0.829169
    24  C    0.212716  -0.091639
    25  H   -0.666570  -0.001944
    26  H   -0.074092   0.000047
    27  O   -0.551864   0.187587
    28  O   -0.666759   0.032690
 Sum of Mulliken charges =  -0.00000   1.00000

 Dipole moment (field-independent basis, Debye):
    X=             -0.2282    Y=             -4.3766    Z=              2.2064  Tot=              4.9066
 Quadrupole moment (field-independent basis, Debye-Ang):
   XX=            -99.9032   YY=           -110.1244   ZZ=            -91.5646
   XY=              8.1754   XZ=            -17.0261   YZ=              0.4983

  Exact polarizability:     218.877      -0.153     132.849       2.698     -17.006     122.471
 Approx polarizability:     287.022       6.525     196.684      -0.830     -38.212     192.926

                      1                      2                      3
                      A                      A                      A
 Frequencies --     35.0944                55.6658                62.1910
 Red. masses --      9.9668                 6.6273                 6.6824
 Frc consts  --      0.0072                 0.0121                 0.0152
 IR Inten    --      1.1377                 9.4062                 6.6911

                      4                      5                      6
                      A                      A                      A
 Frequencies --     85.0313               120.1241               123.7041
 Red. masses --      6.5684                 8.0685                 4.6080
 Frc consts  --      0.0280                 0.0686                 0.0415
 IR Inten    --      1.1692                 1.0669                11.1663

                      7                      8                      9
                      A                      A                      A
 Frequencies --    139.9180               185.4072               214.6782
 Red. masses --     12.5522                 5.1778                 1.6848
 Frc consts  --      0.1448                 0.1049                 0.0457
 IR Inten    --      2.5347                 3.2979                11.2255

                     10                     11                     12
                      A                      A                      A
 Frequencies --    230.6978               260.1858               272.7480
 Red. masses --      2.9150                 6.3003                 3.1026
 Frc consts  --      0.0914                 0.2513                 0.1360
 IR Inten    --      2.3050                14.5009                 3.0451

                     13                     14                     15
                      A                      A                      A
 Frequencies --    297.9824               316.5026               345.5853
 Red. masses --      4.5388                 6.5778                 5.0822
 Frc consts  --      0.2375                 0.3882                 0.3576
 IR Inten    --     10.9404                14.0941                 6.1641

                     16                     17                     18
                      A                      A                      A
 Frequencies --    363.0613               414.7534               445.4778
 Red. masses --      4.7289                 3.1967                10.3528
 Frc consts  --      0.3673                 0.3240                 1.2105
 IR Inten    --     10.0998                 4.7679                23.1920

                     19                     20                     21
                      A                      A                      A
 Frequencies --    472.8209               493.2415               502.1040
 Red. masses --      4.6650                 1.2350                 1.2768
 Frc consts  --      0.6145                 0.1770                 0.1897
 IR Inten    --     10.2884               230.3988                 5.6532

                     22                     23                     24
                      A                      A                      A
 Frequencies --    539.9189               564.0111               570.6742
 Red. masses --      2.7683                 1.6433                 3.8840
 Frc consts  --      0.4755                 0.3080                 0.7453
 IR Inten    --     10.1792                78.3213                21.7329

                     25                     26                     27
                      A                      A                      A
 Frequencies --    600.0856               636.3925               706.8168
 Red. masses --      3.4396                 4.6774                 5.8280
 Frc consts  --      0.7298                 1.1161                 1.7155
 IR Inten    --     13.1846                 8.1558                 9.2444

                     28                     29                     30
                      A                      A                      A
 Frequencies --    727.1685               740.3368               769.3928
 Red. masses --      6.8397                 6.5315                 6.6588
 Frc consts  --      2.1309                 2.1092                 2.3224
 IR Inten    --     25.0820                 1.4150                20.1810

                     31                     32                     33
                      A                      A                      A
 Frequencies --    781.9761               839.1486               880.5462
 Red. masses --      8.3069                 6.9929                 2.8348
 Frc consts  --      2.9928                 2.9012                 1.2950
 IR Inten    --      4.9598                10.3105                 3.2503

                     34                     35                     36
                      A                      A                      A
 Frequencies --    896.8171               921.2293               939.8972
 Red. masses --      2.3586                 3.2945                 1.8441
 Frc consts  --      1.1177                 1.6473                 0.9598
 IR Inten    --     14.8793                49.8584                36.3563

                     37                     38                     39
                      A                      A                      A
 Frequencies --    977.4164              1030.7631              1067.9019
 Red. masses --      2.9480                 2.3896                 2.7349
 Frc consts  --      1.6593                 1.4958                 1.8376
 IR Inten    --     32.9503                54.6694                31.1276

                     40                     41                     42
                      A                      A                      A
 Frequencies --   1076.2017              1091.9461              1111.3357
 Red. masses --      3.0577                 5.5459                 2.4190
 Frc consts  --      2.0866                 3.8960                 1.7603
 IR Inten    --     88.5417                48.3351                42.7939

                     43                     44                     45
                      A                      A                      A
 Frequencies --   1130.7696              1152.9718              1163.5634
 Red. masses --      4.2586                 2.8616                 3.0356
 Frc consts  --      3.2082                 2.2413                 2.4215
 IR Inten    --     56.0934               107.0893               121.6266

                     46                     47                     48
                      A                      A                      A
 Frequencies --   1193.3773              1201.7549              1217.5797
 Red. masses --      1.4867                 1.7608                 2.9834
 Frc consts  --      1.2475                 1.4982                 2.6059
 IR Inten    --     50.4442                42.5628                35.9849

                     49                     50                     51
                      A                      A                      A
 Frequencies --   1231.3931              1256.6354              1269.9741
 Red. masses --      1.2058                 1.3166                 1.4733
 Frc consts  --      1.0773                 1.2250                 1.4000
 IR Inten    --      1.8630                28.5760                 3.1617

                     52                     53                     54
                      A                      A                      A
 Frequencies --   1293.1338              1305.0955              1317.7976
 Red. masses --      1.4699                 1.4245                 2.3786
 Frc consts  --      1.4482                 1.4295                 2.4337
 IR Inten    --      3.5911                14.3727                21.3964

                     55                     56                     57
                      A                      A                      A
 Frequencies --   1333.4505              1344.6317              1362.5611
 Red. masses --      1.4187                 1.4749                 1.3692
 Frc consts  --      1.4863                 1.5711                 1.4977
 IR Inten    --      5.4534                21.5454                19.4452

                     58                     59                     60
                      A                      A                      A
 Frequencies --   1372.6714              1383.5222              1412.8980
 Red. masses --      1.3061                 1.4048                 1.6474
 Frc consts  --      1.4500                 1.5843                 1.9377
 IR Inten    --     33.1760                74.4311                16.7599

                     61                     62                     63
                      A                      A                      A
 Frequencies --   1432.9773              1451.7658              1476.8791
 Red. masses --      1.4023                 1.6632                 1.0804
 Frc consts  --      1.6966                 2.0653                 1.3885
 IR Inten    --     16.4049                 1.8265                 2.4130

                     64                     65                     66
                      A                      A                      A
 Frequencies --   1488.6988              1658.3157              1676.1156
 Red. masses --      2.4352                 8.5252                 6.9521
 Frc consts  --      3.1798                13.8130                11.5074
 IR Inten    --     19.6580               346.1291               454.6821

                     67                     68                     69
                      A                      A                      A
 Frequencies --   1728.1847              3017.5417              3030.3360
 Red. masses --     12.7550                 1.0721                 1.0796
 Frc consts  --     22.4445                 5.7517                 5.8413
 IR Inten    --    493.1531                19.1572                83.7585

                     70                     71                     72
                      A                      A                      A
 Frequencies --   3034.7010              3040.4046              3103.8059
 Red. masses --      1.0848                 1.0864                 1.0966
 Frc consts  --      5.8862                 5.9170                 6.2243
 IR Inten    --     23.4523                34.5114                26.8353

                     73                     74                     75
                      A                      A                      A
 Frequencies --   3126.5435              3223.6740              3649.6160
 Red. masses --      1.0878                 1.0945                 1.0794
 Frc consts  --      6.2650                 6.7013                 8.4709
 IR Inten    --      4.5956                 0.8003               129.9637

                     76                     77                     78
                      A                      A                      A
 Frequencies --   3750.5773              3764.4203              3896.1642
 Red. masses --      1.0652                 1.0669                 1.0671
 Frc consts  --      8.8280                 8.9079                 9.5441
 IR Inten    --     89.9379               231.0668                71.8147

 - Thermochemistry -
 -------------------
 Temperature   298.150 Kelvin.  Pressure   1.00000 Atm.
 Atom     1 has atomic number  6 and mass  12.00000

 Molecular mass:   243.06171 amu.
 Principal axes and moments of inertia in atomic units:
                           1         2         3
     Eigenvalues --  1975.252776051.672796872.59794
           X            0.99992   0.01062  -0.00659
           Y           -0.01057   0.99992   0.00737
           Z            0.00666  -0.00730   0.99995
 This molecule is an asymmetric top.
 Rotational symmetry number  1.
 Warning -- assumption of classical behavior for rotation
           may cause significant error
 Rotational temperatures (Kelvin)      0.04385     0.01431     0.01260
 Rotational constants (GHZ):           0.91368     0.29822     0.26260
 Zero-point vibrational energy     558664.8 (Joules/Mol)
                                  133.52408 (Kcal/Mol)
 Warning -- explicit consideration of  25 degrees of freedom as
           vibrations may cause significant error
 Vibrational temperatures:     50.49    80.09    89.48   122.34   172.83
          (Kelvin)            177.98   201.31   266.76   308.87   331.92
                              374.35   392.42   428.73   455.38   497.22
                              522.36   596.74   640.94   680.28   709.66
                              722.42   776.82   811.49   821.07   863.39
                              915.63  1016.95  1046.23  1065.18  1106.98
                             1125.09  1207.35  1266.91  1290.32  1325.44
                             1352.30  1406.28  1483.04  1536.47  1548.41
                             1571.07  1598.96  1626.93  1658.87  1674.11
                             1717.00  1729.06  1751.83  1771.70  1808.02
                             1827.21  1860.53  1877.74  1896.02  1918.54
                             1934.63  1960.42  1974.97  1990.58  2032.85
                             2061.73  2088.77  2124.90  2141.91  2385.95
                             2411.56  2486.47  4341.57  4359.98  4366.26
                             4374.46  4465.68  4498.40  4638.15  5250.98
                             5396.24  5416.16  5605.71

 Zero-point correction=                           0.212784 (Hartree/Particle)
 Thermal correction to Energy=                    0.228344
 Thermal correction to Enthalpy=                  0.229288
 Thermal correction to Gibbs Free Energy=         0.168711
 Sum of electronic and zero-point Energies=           -909.313245
 Sum of electronic and thermal Energies=              -909.297686
 Sum of electronic and thermal Enthalpies=            -909.296742
 Sum of electronic and thermal Free Energies=         -909.357318

                     E (Thermal)             CV                S
                      KCal/Mol        Cal/Mol-Kelvin    Cal/Mol-Kelvin
 Total                  143.288             58.641            127.495
 Electronic               0.000              0.000              1.377
 Translational            0.889              2.981             42.365
 Rotational               0.889              2.981             32.774
 Vibrational            141.510             52.680             50.978
 Vibration     1          0.594              1.982              5.518
 Vibration     2          0.596              1.975              4.605
 Vibration     3          0.597              1.972              4.386
 Vibration     4          0.601              1.960              3.771
 Vibration     5          0.609              1.932              3.098
 Vibration     6          0.610              1.929              3.042
 Vibration     7          0.615              1.913              2.805
 Vibration     8          0.631              1.860              2.273
 Vibration     9          0.645              1.819              2.004
 Vibration    10          0.652              1.794              1.874
 Vibration    11          0.668              1.745              1.661
 Vibration    12          0.676              1.724              1.579
 Vibration    13          0.691              1.677              1.428
 Vibration    14          0.703              1.642              1.328
 Vibration    15          0.724              1.584              1.186
 Vibration    16          0.737              1.548              1.109
 Vibration    17          0.778              1.438              0.910
 Vibration    18          0.805              1.371              0.810
 Vibration    19          0.830              1.310              0.730
 Vibration    20          0.849              1.265              0.675
 Vibration    21          0.857              1.245              0.653
 Vibration    22          0.895              1.162              0.565
 Vibration    23          0.920              1.109              0.516
 Vibration    24          0.927              1.095              0.503
 Vibration    25          0.958              1.032              0.450

                           ! Non-Optimized Parameters !
 Normal termination of Gaussian 16 at Mon Oct 28 10:25:24 2024.
