 Gaussian 16, Revision C.01,
 Gaussian 16:  EM64L-G16RevC.01  3-Jul-2019

 ------------------------------------------------------
 # PBE1PBE/aug-cc-pVDZ opt freq EmpiricalDispersion=GD3
 ------------------------------------------------------

 ----
 blah
 ----
 Symbolic Z-matrix:
 Charge =  0 Multiplicity = 1

 SCF Done:  E(RPBE1PBE) =  -910.208475216     A.U. after   14 cycles
 SCF Done:  E(RPBE1PBE) =  -910.226205041     A.U. after   13 cycles
 SCF Done:  E(RPBE1PBE) =  -910.225983833     A.U. after   15 cycles
 SCF Done:  E(RPBE1PBE) =  -910.227206301     A.U. after   12 cycles
 SCF Done:  E(RPBE1PBE) =  -910.227629912     A.U. after   12 cycles
 SCF Done:  E(RPBE1PBE) =  -910.227665972     A.U. after   11 cycles
 SCF Done:  E(RPBE1PBE) =  -910.227668726     A.U. after   10 cycles
 SCF Done:  E(RPBE1PBE) =  -910.227681087     A.U. after    9 cycles
 SCF Done:  E(RPBE1PBE) =  -910.227682408     A.U. after   10 cycles
 SCF Done:  E(RPBE1PBE) =  -910.227683176     A.U. after   10 cycles
 SCF Done:  E(RPBE1PBE) =  -910.227683637     A.U. after    9 cycles
 SCF Done:  E(RPBE1PBE) =  -910.227683966     A.U. after    8 cycles
 SCF Done:  E(RPBE1PBE) =  -910.227684061     A.U. after    8 cycles
 SCF Done:  E(RPBE1PBE) =  -910.227684115     A.U. after    8 cycles
 Optimization completed.
    -- Stationary point found.
 Normal termination of Gaussian 16 at Sat Oct 26 06:21:02 2024.

 ----------------------------------------------------------------------
 #N Geom=AllCheck Guess=TCheck SCRF=Check GenChk RPBE1PBE/Aug-CC-pVDZ F
 req
 ----------------------------------------------------------------------

 Structure from the checkpoint file:  "/scr/Gau-56157.chk"
 ----
 blah
 ----
 Charge =  0 Multiplicity = 1

                         Standard orientation:
 ---------------------------------------------------------------------
 Center     Atomic      Atomic             Coordinates (Angstroms)
 Number     Number       Type             X           Y           Z
 ---------------------------------------------------------------------
      1          6           0        2.303647   -0.221326   -0.645041
      2          6           0        1.238282   -1.329676   -0.588336
      3          6           0        0.387335   -0.945815    0.639522
      4          8           0        1.837031   -2.585331   -0.354319
      5          1           0        0.631463   -1.362221   -1.507113
      6          8           0        1.049039    0.135335    1.294356
      7          1           0        0.378521   -1.829527    1.298314
      8          6           0       -1.026459   -0.543058    0.356677
      9          6           0        2.375731    0.270327    0.797206
     10          1           0        1.963388    0.594815   -1.291599
     11          8           0        3.567168   -0.721386   -1.058673
     12          6           0        2.784064    1.721050    0.950332
     13          1           0        3.072868   -0.374777    1.362465
     14          8           0        2.057309    2.589126    0.111572
     15          1           0        3.845909    1.820432    0.683677
     16          1           0        2.672565    2.000936    2.012488
     17          1           0        3.711116   -0.477946   -1.976520
     18          1           0        2.742742   -2.513602   -0.691082
     19          1           0        1.139642    2.283894    0.075382
     20          6           0       -2.078680   -1.214255    0.878283
     21          7           0       -3.376423   -0.862742    0.626640
     22          6           0       -3.737529    0.212035   -0.166073
     23          7           0       -2.651508    0.891089   -0.678594
     24          6           0       -1.298668    0.613379   -0.489037
     25          1           0       -1.941763   -2.077937    1.528073
     26          1           0       -4.146452   -1.379555    1.025835
     27          1           0       -2.869781    1.690375   -1.261955
     28          8           0       -4.892417    0.518436   -0.381677
     29          8           0       -0.454509    1.320162   -1.023196
 ---------------------------------------------------------------------

 SCF Done:  E(RPBE1PBE) =  -910.227684114     A.U. after    1 cycles

 The electronic state is 1-A.
 Alpha  occ. eigenvalues --  -19.25653 -19.24158 -19.22845 -19.22474 -19.22358
 Alpha  occ. eigenvalues --  -19.21027 -14.48732 -14.47242 -10.40297 -10.37400
 Alpha  occ. eigenvalues --  -10.33187 -10.30463 -10.29241 -10.29158 -10.28495
 Alpha  occ. eigenvalues --  -10.27339 -10.27213  -1.13323  -1.10627  -1.09928
 Alpha  occ. eigenvalues --   -1.08135  -1.05653  -1.04172  -1.03216  -0.97934
 Alpha  occ. eigenvalues --   -0.86497  -0.80213  -0.78631  -0.73325  -0.71015
 Alpha  occ. eigenvalues --   -0.70103  -0.64920  -0.61950  -0.61156  -0.59680
 Alpha  occ. eigenvalues --   -0.56572  -0.55662  -0.53976  -0.52786  -0.52139
 Alpha  occ. eigenvalues --   -0.51308  -0.49763  -0.49118  -0.48716  -0.47346
 Alpha  occ. eigenvalues --   -0.46102  -0.44652  -0.44128  -0.43453  -0.42465
 Alpha  occ. eigenvalues --   -0.40461  -0.39978  -0.38879  -0.37072  -0.35560
 Alpha  occ. eigenvalues --   -0.34520  -0.33173  -0.32331  -0.31622  -0.30930
 Alpha  occ. eigenvalues --   -0.29504  -0.28654  -0.27642  -0.27103
 Alpha virt. eigenvalues --   -0.06219  -0.01914  -0.01344  -0.01033   0.00352
 Alpha virt. eigenvalues --    0.01122   0.01688   0.02514   0.02722   0.03382
 Alpha virt. eigenvalues --    0.04139   0.04603   0.04788   0.05239   0.05786

 Mulliken charges:
               1
     1  C    0.761993
     2  C    0.872384
     3  C    1.120953
     4  O   -0.698753
     5  H   -0.417224
     6  O   -0.905380
     7  H   -0.597556
     8  C    0.917751
     9  C    0.587925
    10  H   -0.496678
    11  O   -0.637068
    12  C    1.214865
    13  H   -0.505344
    14  O   -0.531893
    15  H   -0.237760
    16  H   -0.221222
    17  H    0.170219
    18  H    0.159332
    19  H    0.180892
    20  C    1.318637
    21  N   -0.519421
    22  C    0.731877
    23  N   -0.386867
    24  C    0.321486
    25  H   -0.721262
    26  H   -0.063418
    27  H   -0.068554
    28  O   -0.581204
    29  O   -0.768708
 Sum of Mulliken charges =   0.00000

 Dipole moment (field-independent basis, Debye):
    X=             -0.6612    Y=             -3.2990    Z=              0.4023  Tot=              3.3885
 Quadrupole moment (field-independent basis, Debye-Ang):
   XX=           -103.9640   YY=           -106.8731   ZZ=            -92.0747
   XY=              6.0018   XZ=            -10.1975   YZ=             -2.4279

  Exact polarizability:     193.336       5.185     131.886      -3.256     -11.242     112.794
 Approx polarizability:     251.186      13.309     191.623     -11.099     -27.008     172.638

                      1                      2                      3
                      A                      A                      A
 Frequencies --     44.4207                54.7857                62.6520
 Red. masses --      8.4585                 6.0786                 6.0952
 Frc consts  --      0.0098                 0.0107                 0.0141
 IR Inten    --      2.3261                 4.4173                 4.9104

                      4                      5                      6
                      A                      A                      A
 Frequencies --     86.7968               126.2373               136.9548
 Red. masses --      7.6189                 4.7764                 6.9483
 Frc consts  --      0.0338                 0.0448                 0.0768
 IR Inten    --      0.8354                10.8467                 0.3269

                      7                      8                      9
                      A                      A                      A
 Frequencies --    162.2014               187.1185               216.1317
 Red. masses --      9.6141                 5.1560                 1.7322
 Frc consts  --      0.1490                 0.1064                 0.0477
 IR Inten    --      2.6215                 4.5693                11.4837

                     10                     11                     12
                      A                      A                      A
 Frequencies --    232.6111               264.1708               275.2865
 Red. masses --      2.8027                 5.8090                 2.8782
 Frc consts  --      0.0893                 0.2388                 0.1285
 IR Inten    --      2.9848                10.1218                 4.5242

                     13                     14                     15
                      A                      A                      A
 Frequencies --    304.1564               326.8422               359.7602
 Red. masses --      5.4861                 6.9133                 3.6250
 Frc consts  --      0.2990                 0.4351                 0.2764
 IR Inten    --     11.9606                25.3665                 1.3076

                     16                     17                     18
                      A                      A                      A
 Frequencies --    398.9742               413.8673               469.9775
 Red. masses --     10.2434                 2.8815                 1.9143
 Frc consts  --      0.9607                 0.2908                 0.2491
 IR Inten    --     25.4306                 9.6337                92.9583

                     19                     20                     21
                      A                      A                      A
 Frequencies --    472.8326               504.0088               545.2384
 Red. masses --      1.5578                 1.2534                 5.4742
 Frc consts  --      0.2052                 0.1876                 0.9588
 IR Inten    --     57.9918                75.7893                31.6108

                     22                     23                     24
                      A                      A                      A
 Frequencies --    562.7087               581.0975               599.2881
 Red. masses --      5.4011                 5.7174                 1.1317
 Frc consts  --      1.0076                 1.1375                 0.2395
 IR Inten    --      3.4023                45.0965                56.5592

                     25                     26                     27
                      A                      A                      A
 Frequencies --    605.1594               638.5371               707.1713
 Red. masses --      6.2663                 4.5112                 1.2975
 Frc consts  --      1.3521                 1.0837                 0.3823
 IR Inten    --      8.6561                 7.0542                37.9519

                     28                     29                     30
                      A                      A                      A
 Frequencies --    710.8373               745.5652               770.6739
 Red. masses --      3.9496                 4.8636                 8.1763
 Frc consts  --      1.1758                 1.5929                 2.8612
 IR Inten    --     35.2542                 2.6950                39.6918

                     31                     32                     33
                      A                      A                      A
 Frequencies --    778.7349               811.3036               867.9420
 Red. masses --      6.6622                 8.6648                 3.9007
 Frc consts  --      2.3804                 3.3603                 1.7313
 IR Inten    --      4.8212                17.7366                 7.8304

                     34                     35                     36
                      A                      A                      A
 Frequencies --    885.9921               902.5955               942.1602
 Red. masses --      3.3213                 2.3339                 1.4272
 Frc consts  --      1.5361                 1.1203                 0.7464
 IR Inten    --      4.5734                36.3698                12.3765

                     37                     38                     39
                      A                      A                      A
 Frequencies --    975.6557               995.5477              1036.0346
 Red. masses --      2.9879                 2.9797                 2.4759
 Frc consts  --      1.6758                 1.7400                 1.5658
 IR Inten    --     20.0038                11.4357                45.8440

                     40                     41                     42
                      A                      A                      A
 Frequencies --   1069.4399              1077.9524              1106.5280
 Red. masses --      2.6995                 3.3627                 2.4984
 Frc consts  --      1.8190                 2.3021                 1.8024
 IR Inten    --     28.3076                72.7471                72.6171

                     43                     44                     45
                      A                      A                      A
 Frequencies --   1128.2208              1153.7830              1162.5451
 Red. masses --      4.2296                 2.4960                 3.4588
 Frc consts  --      3.1720                 1.9577                 2.7542
 IR Inten    --     67.0054                54.3242               156.2747

                     46                     47                     48
                      A                      A                      A
 Frequencies --   1178.4746              1205.9039              1226.8588
 Red. masses --      2.3550                 1.2880                 1.8860
 Frc consts  --      1.9270                 1.1036                 1.6726
 IR Inten    --      4.1799               113.5750                55.3467

                     49                     50                     51
                      A                      A                      A
 Frequencies --   1231.2534              1255.8574              1265.6657
 Red. masses --      1.2036                 1.3748                 1.6130
 Frc consts  --      1.0750                 1.2776                 1.5224
 IR Inten    --      2.5295                19.3562                 9.7910

                     52                     53                     54
                      A                      A                      A
 Frequencies --   1290.8270              1306.7708              1323.4949
 Red. masses --      1.2869                 1.4118                 1.5555
 Frc consts  --      1.2634                 1.4204                 1.6053
 IR Inten    --      1.5363                15.6795                 1.3215

                     55                     56                     57
                      A                      A                      A
 Frequencies --   1334.7697              1347.4162              1371.0312
 Red. masses --      1.3987                 1.5278                 1.3111
 Frc consts  --      1.4682                 1.6343                 1.4520
 IR Inten    --      5.3658                 2.9835                22.1373

                     58                     59                     60
                      A                      A                      A
 Frequencies --   1372.0982              1389.7854              1406.6256
 Red. masses --      1.6466                 1.5482                 1.7567
 Frc consts  --      1.8264                 1.7619                 2.0479
 IR Inten    --     29.8415                48.2217                 0.1495

                     61                     62                     63
                      A                      A                      A
 Frequencies --   1424.3644              1432.0804              1446.7446
 Red. masses --      1.5990                 1.4268                 3.1836
 Frc consts  --      1.9114                 1.7240                 3.9260
 IR Inten    --      3.5629                16.8519                85.3554

                     64                     65                     66
                      A                      A                      A
 Frequencies --   1451.9679              1478.0881              1528.8392
 Red. masses --      1.7250                 1.0807                 4.0696
 Frc consts  --      2.1426                 1.3910                 5.6043
 IR Inten    --      3.4394                 2.9414               166.3390

                     67                     68                     69
                      A                      A                      A
 Frequencies --   1719.9621              1766.6403              1834.9846
 Red. masses --      7.0020                 8.8009                 8.2604
 Frc consts  --     12.2043                16.1836                16.3877
 IR Inten    --     31.3026               736.6493               879.0349

                     70                     71                     72
                      A                      A                      A
 Frequencies --   3015.5689              3029.3529              3042.1527
 Red. masses --      1.0756                 1.0757                 1.0855
 Frc consts  --      5.7627                 5.8161                 5.9188
 IR Inten    --     16.7240                90.1781                22.3011

                     73                     74                     75
                      A                      A                      A
 Frequencies --   3046.8078              3103.6418              3133.8999
 Red. masses --      1.0865                 1.0970                 1.0877
 Frc consts  --      5.9423                 6.2259                 6.2942
 IR Inten    --     44.7688                26.8274                 4.3500

                     76                     77                     78
                      A                      A                      A
 Frequencies --   3225.2543              3626.2093              3669.1165
 Red. masses --      1.0947                 1.0779                 1.0792
 Frc consts  --      6.7092                 8.3508                 8.5598
 IR Inten    --      1.3930                76.2091               129.5210

                     79                     80                     81
                      A                      A                      A
 Frequencies --   3747.1922              3772.8945              3896.5943
 Red. masses --      1.0652                 1.0667                 1.0671
 Frc consts  --      8.8122                 8.9466                 9.5460
 IR Inten    --     94.7156               200.5642                68.0917

 - Thermochemistry -
 -------------------
 Temperature   298.150 Kelvin.  Pressure   1.00000 Atm.
 Atom     1 has atomic number  6 and mass  12.00000

 Molecular mass:   244.06954 amu.
 Principal axes and moments of inertia in atomic units:
                           1         2         3
     Eigenvalues --  1970.240436134.520807062.17044
           X            0.99996   0.00812  -0.00243
           Y           -0.00813   0.99997  -0.00086
           Z            0.00243   0.00088   1.00000
 This molecule is an asymmetric top.
 Rotational symmetry number  1.
 Warning -- assumption of classical behavior for rotation
           may cause significant error
 Rotational temperatures (Kelvin)      0.04396     0.01412     0.01226
 Rotational constants (GHZ):           0.91600     0.29419     0.25555
 Zero-point vibrational energy     600284.2 (Joules/Mol)
                                  143.47138 (Kcal/Mol)
 Warning -- explicit consideration of  25 degrees of freedom as
           vibrations may cause significant error
 Vibrational temperatures:     63.91    78.82    90.14   124.88   181.63
          (Kelvin)            197.05   233.37   269.22   310.97   334.68
                              380.08   396.08   437.61   470.25   517.61
                              574.03   595.46   676.19   680.30   725.16
                              784.48   809.61   836.07   862.24   870.69
                              918.71  1017.46  1022.74  1072.70  1108.83
                             1120.43  1167.28  1248.78  1274.75  1298.63
                             1355.56  1403.75  1432.37  1490.62  1538.69
                             1550.93  1592.05  1623.26  1660.04  1672.64
                             1695.56  1735.03  1765.18  1771.50  1806.90
                             1821.01  1857.21  1880.15  1904.21  1920.44
                             1938.63  1972.61  1974.14  1999.59  2023.82
                             2049.34  2060.44  2081.54  2089.06  2126.64
                             2199.66  2474.64  2541.80  2640.13  4338.73
                             4358.56  4376.98  4383.68  4465.45  4508.98
                             4640.42  5217.31  5279.04  5391.37  5428.35
                             5606.33

 Zero-point correction=                           0.228636 (Hartree/Particle)
 Thermal correction to Energy=                    0.243950
 Thermal correction to Enthalpy=                  0.244894
 Thermal correction to Gibbs Free Energy=         0.185741
 Sum of electronic and zero-point Energies=           -909.999048
 Sum of electronic and thermal Energies=              -909.983734
 Sum of electronic and thermal Enthalpies=            -909.982790
 Sum of electronic and thermal Free Energies=         -910.041944

                     E (Thermal)             CV                S
                      KCal/Mol        Cal/Mol-Kelvin    Cal/Mol-Kelvin
 Total                  153.081             58.465            124.500
 Electronic               0.000              0.000              0.000
 Translational            0.889              2.981             42.378
 Rotational               0.889              2.981             32.812
 Vibrational            151.304             52.504             49.310
 Vibration     1          0.595              1.980              5.051
 Vibration     2          0.596              1.976              4.637
 Vibration     3          0.597              1.972              4.372
 Vibration     4          0.601              1.958              3.731
 Vibration     5          0.611              1.927              3.003
 Vibration     6          0.614              1.916              2.846
 Vibration     7          0.622              1.889              2.524
 Vibration     8          0.632              1.858              2.256
 Vibration     9          0.645              1.816              1.991
 Vibration    10          0.653              1.791              1.859
 Vibration    11          0.671              1.739              1.634
 Vibration    12          0.677              1.719              1.563
 Vibration    13          0.695              1.666              1.394
 Vibration    14          0.711              1.622              1.276
 Vibration    15          0.734              1.555              1.123
 Vibration    16          0.765              1.472              0.966
 Vibration    17          0.777              1.440              0.913
 Vibration    18          0.827              1.317              0.738
 Vibration    19          0.830              1.310              0.730
 Vibration    20          0.859              1.241              0.648
 Vibration    21          0.900              1.150              0.554
 Vibration    22          0.918              1.112              0.518
 Vibration    23          0.938              1.072              0.483
 Vibration    24          0.957              1.033              0.451
 Vibration    25          0.964              1.021              0.441

                           ! Non-Optimized Parameters !
 Normal termination of Gaussian 16 at Sat Oct 26 06:37:16 2024.
