 Gaussian 16, Revision C.01,
 Gaussian 16:  EM64L-G16RevC.01  3-Jul-2019

 ------------------------------------------------------
 # PBE1PBE/aug-cc-pVDZ opt freq EmpiricalDispersion=GD3
 ------------------------------------------------------

 ----
 blah
 ----
 Symbolic Z-matrix:
 Charge = -1 Multiplicity = 1

 SCF Done:  E(RPBE1PBE) =  -909.684105065     A.U. after   14 cycles
 SCF Done:  E(RPBE1PBE) =  -909.695843495     A.U. after   12 cycles
 SCF Done:  E(RPBE1PBE) =  -909.693848221     A.U. after   13 cycles
 SCF Done:  E(RPBE1PBE) =  -909.696753771     A.U. after   12 cycles
 SCF Done:  E(RPBE1PBE) =  -909.697474711     A.U. after   12 cycles
 SCF Done:  E(RPBE1PBE) =  -909.697751847     A.U. after   13 cycles
 SCF Done:  E(RPBE1PBE) =  -909.697943171     A.U. after   13 cycles
 SCF Done:  E(RPBE1PBE) =  -909.698111972     A.U. after   12 cycles
 SCF Done:  E(RPBE1PBE) =  -909.698194186     A.U. after   11 cycles
 SCF Done:  E(RPBE1PBE) =  -909.698201855     A.U. after   10 cycles
 SCF Done:  E(RPBE1PBE) =  -909.698203214     A.U. after    9 cycles
 SCF Done:  E(RPBE1PBE) =  -909.698205074     A.U. after    9 cycles
 SCF Done:  E(RPBE1PBE) =  -909.698205996     A.U. after    9 cycles
 SCF Done:  E(RPBE1PBE) =  -909.698206327     A.U. after    8 cycles
 SCF Done:  E(RPBE1PBE) =  -909.698206510     A.U. after    8 cycles
 SCF Done:  E(RPBE1PBE) =  -909.698206768     A.U. after    8 cycles
 SCF Done:  E(RPBE1PBE) =  -909.698206824     A.U. after    8 cycles
 Optimization completed.
    -- Stationary point found.
 Normal termination of Gaussian 16 at Sun Oct 27 04:16:18 2024.

 ----------------------------------------------------------------------
 #N Geom=AllCheck Guess=TCheck SCRF=Check GenChk RPBE1PBE/Aug-CC-pVDZ F
 req
 ----------------------------------------------------------------------

 Structure from the checkpoint file:  "/scr/Gau-15879.chk"
 ----
 blah
 ----
 Charge = -1 Multiplicity = 1

                         Standard orientation:
 ---------------------------------------------------------------------
 Center     Atomic      Atomic             Coordinates (Angstroms)
 Number     Number       Type             X           Y           Z
 ---------------------------------------------------------------------
      1          6           0        2.190171   -0.182307   -0.681177
      2          6           0        1.244415   -1.378756   -0.565345
      3          6           0        0.359223   -1.022842    0.641386
      4          8           0        1.991615   -2.553718   -0.280171
      5          1           0        0.636434   -1.527177   -1.470909
      6          8           0        1.084885   -0.012593    1.377595
      7          1           0        0.302140   -1.930702    1.263500
      8          6           0       -1.030592   -0.568560    0.345593
      9          6           0        2.326564    0.279279    0.766109
     10          1           0        1.723932    0.605675   -1.281510
     11          8           0        3.471421   -0.544047   -1.205269
     12          6           0        2.620895    1.759930    0.931063
     13          1           0        3.142797   -0.300468    1.241866
     14          8           0        1.821556    2.602957    0.143601
     15          1           0        3.673772    1.936399    0.653512
     16          1           0        2.515243    1.996837    2.006733
     17          1           0        3.466993   -0.349247   -2.145326
     18          1           0        2.866771   -2.398115   -0.662718
     19          1           0        0.953085    2.176705   -0.028882
     20          6           0       -2.140344   -1.288908    0.776551
     21          7           0       -3.428421   -1.023614    0.571349
     22          6           0       -3.718173    0.102250   -0.142753
     23          7           0       -2.629979    0.879478   -0.575951
     24          6           0       -1.288682    0.629419   -0.383728
     25          1           0       -1.946138   -2.199487    1.360404
     26          1           0       -2.863500    1.720753   -1.086985
     27          8           0       -4.854978    0.487178   -0.429950
     28          8           0       -0.444947    1.432815   -0.848764
 ---------------------------------------------------------------------

 SCF Done:  E(RPBE1PBE) =  -909.698206824     A.U. after    1 cycles

 The electronic state is 1-A.
 Alpha  occ. eigenvalues --  -19.15779 -19.12419 -19.11637 -19.09193 -19.06414
 Alpha  occ. eigenvalues --  -19.03971 -14.30215 -14.23829 -10.20900 -10.20580
 Alpha  occ. eigenvalues --  -10.18250 -10.17719 -10.17507 -10.17333 -10.16610
 Alpha  occ. eigenvalues --  -10.14772 -10.09693  -0.99384  -0.96479  -0.94870
 Alpha  occ. eigenvalues --   -0.94478  -0.92451  -0.91848  -0.83048  -0.78098
 Alpha  occ. eigenvalues --   -0.70378  -0.69111  -0.64333  -0.58115  -0.54439
 Alpha  occ. eigenvalues --   -0.52994  -0.50782  -0.49275  -0.46096  -0.43230
 Alpha  occ. eigenvalues --   -0.43034  -0.41479  -0.40142  -0.37984  -0.37436
 Alpha  occ. eigenvalues --   -0.36829  -0.35235  -0.33674  -0.33256  -0.31610
 Alpha  occ. eigenvalues --   -0.31051  -0.30171  -0.29481  -0.28081  -0.27530
 Alpha  occ. eigenvalues --   -0.26812  -0.26348  -0.23994  -0.23162  -0.21262
 Alpha  occ. eigenvalues --   -0.19766  -0.18776  -0.17625  -0.16632  -0.15537
 Alpha  occ. eigenvalues --   -0.14982  -0.14347  -0.12925  -0.08854
 Alpha virt. eigenvalues --    0.06809   0.08891   0.09791   0.10408   0.10860
 Alpha virt. eigenvalues --    0.11324   0.11777   0.11937   0.12217   0.12987
 Alpha virt. eigenvalues --    0.14007   0.14708   0.15471   0.15680   0.15982

 Mulliken charges:
               1
     1  C    0.703797
     2  C    0.957250
     3  C    1.068138
     4  O   -0.714566
     5  H   -0.429806
     6  O   -0.889891
     7  H   -0.573171
     8  C    1.164932
     9  C    0.705498
    10  H   -0.580614
    11  O   -0.659581
    12  C    1.204427
    13  H   -0.516922
    14  O   -0.570157
    15  H   -0.256437
    16  H   -0.232935
    17  H    0.154622
    18  H    0.145184
    19  H    0.245718
    20  C    0.575075
    21  N   -0.682911
    22  C    0.712564
    23  N   -0.418954
    24  C    0.400341
    25  H   -0.700957
    26  H   -0.102195
    27  O   -0.729093
    28  O   -0.979356
 Sum of Mulliken charges =  -1.00000

 Dipole moment (field-independent basis, Debye):
    X=              9.6408    Y=             -1.4029    Z=             -1.7188  Tot=              9.8928
 Quadrupole moment (field-independent basis, Debye-Ang):
   XX=           -167.4556   YY=           -121.6169   ZZ=            -99.9257
   XY=             -5.0641   XZ=             -4.1624   YZ=              2.5202

  Exact polarizability:     209.453       3.572     144.258       1.328     -11.691     118.719
 Approx polarizability:     271.542       7.207     209.693      -0.460     -27.391     180.656

                      1                      2                      3
                      A                      A                      A
 Frequencies --     45.6985                70.6329                81.0539
 Red. masses --      8.6344                 6.7893                 6.7567
 Frc consts  --      0.0106                 0.0200                 0.0262
 IR Inten    --      0.6494                 0.8620                 7.8742

                      4                      5                      6
                      A                      A                      A
 Frequencies --    118.5043               130.9318               145.5061
 Red. masses --      5.3751                 5.7113                 7.4834
 Frc consts  --      0.0445                 0.0577                 0.0933
 IR Inten    --      9.8882                 4.3883                 0.9519

                      7                      8                      9
                      A                      A                      A
 Frequencies --    171.5066               194.4236               227.0529
 Red. masses --      8.5571                 8.0973                 1.3422
 Frc consts  --      0.1483                 0.1803                 0.0408
 IR Inten    --      3.8867                 7.7302                12.5951

                     10                     11                     12
                      A                      A                      A
 Frequencies --    235.4729               259.5583               274.2812
 Red. masses --      3.7751                 6.8248                 3.1724
 Frc consts  --      0.1233                 0.2709                 0.1406
 IR Inten    --      0.4639                 3.5429                15.4813

                     13                     14                     15
                      A                      A                      A
 Frequencies --    305.3269               317.7787               362.7379
 Red. masses --      5.8289                 7.5713                 3.6640
 Frc consts  --      0.3202                 0.4505                 0.2841
 IR Inten    --     10.4263                15.4448                 3.3193

                     16                     17                     18
                      A                      A                      A
 Frequencies --    406.4099               450.2008               472.5313
 Red. masses --     11.7288                 3.5360                 3.3618
 Frc consts  --      1.1414                 0.4223                 0.4423
 IR Inten    --     20.0085                 4.3224                 5.3993

                     19                     20                     21
                      A                      A                      A
 Frequencies --    505.7142               553.5856               568.6282
 Red. masses --      1.1943                 6.2870                 5.2189
 Frc consts  --      0.1800                 1.1352                 0.9942
 IR Inten    --    102.7673                43.9443                 4.8246

                     22                     23                     24
                      A                      A                      A
 Frequencies --    590.7126               628.3142               643.9447
 Red. masses --      7.5986                 7.6248                 4.5508
 Frc consts  --      1.5622                 1.7735                 1.1118
 IR Inten    --     13.5041                21.0932                 3.3708

                     25                     26                     27
                      A                      A                      A
 Frequencies --    702.0347               712.3314               720.9016
 Red. masses --      1.1185                 1.1111                 4.8304
 Frc consts  --      0.3248                 0.3322                 1.4791
 IR Inten    --      4.0215               132.3461                 6.8284

                     28                     29                     30
                      A                      A                      A
 Frequencies --    760.4434               789.8508               801.4953
 Red. masses --      5.5826                10.4012                 6.9106
 Frc consts  --      1.9021                 3.8232                 2.6156
 IR Inten    --      9.8824                 0.1151                 6.2817

                     31                     32                     33
                      A                      A                      A
 Frequencies --    817.2969               867.3021               886.3817
 Red. masses --     10.5595                 4.7187                 3.7430
 Frc consts  --      4.1558                 2.0913                 1.7326
 IR Inten    --     40.1080                32.0447                 1.0920

                     34                     35                     36
                      A                      A                      A
 Frequencies --    897.5652               965.2417               987.2941
 Red. masses --      2.3372                 3.5687                 2.3262
 Frc consts  --      1.1094                 1.9590                 1.3359
 IR Inten    --     14.9852                49.6508                24.1300

                     37                     38                     39
                      A                      A                      A
 Frequencies --    989.1434              1015.0607              1049.0081
 Red. masses --      1.7850                 2.2921                 2.8336
 Frc consts  --      1.0290                 1.3914                 1.8372
 IR Inten    --     18.0500                66.3099                15.6630

                     40                     41                     42
                      A                      A                      A
 Frequencies --   1073.0523              1096.4983              1117.9135
 Red. masses --      2.5735                 2.9616                 3.1023
 Frc consts  --      1.7459                 2.0979                 2.2843
 IR Inten    --     96.7254                20.7102                69.9037

                     43                     44                     45
                      A                      A                      A
 Frequencies --   1149.0037              1175.2318              1186.7289
 Red. masses --      2.7958                 3.0241                 3.4487
 Frc consts  --      2.1747                 2.4609                 2.8616
 IR Inten    --     62.1873               124.5113                22.9703

                     46                     47                     48
                      A                      A                      A
 Frequencies --   1203.4750              1241.8304              1257.4500
 Red. masses --      1.4744                 1.3125                 2.0767
 Frc consts  --      1.2581                 1.1926                 1.9347
 IR Inten    --     43.6522                 4.8151                36.1942

                     49                     50                     51
                      A                      A                      A
 Frequencies --   1272.0850              1275.5455              1295.9145
 Red. masses --      1.1583                 1.6151                 1.3290
 Frc consts  --      1.1043                 1.5483                 1.3150
 IR Inten    --     29.3148                 1.8392                 7.2888

                     52                     53                     54
                      A                      A                      A
 Frequencies --   1307.4003              1330.6221              1343.0157
 Red. masses --      1.4841                 1.3519                 1.6241
 Frc consts  --      1.4946                 1.4103                 1.7259
 IR Inten    --      2.1518                 4.8094               145.1609

                     55                     56                     57
                      A                      A                      A
 Frequencies --   1347.8068              1353.7323              1365.1546
 Red. masses --      1.6868                 1.6248                 1.2966
 Frc consts  --      1.8054                 1.7544                 1.4237
 IR Inten    --     32.9836                15.1895                16.0349

                     58                     59                     60
                      A                      A                      A
 Frequencies --   1386.2952              1392.0367              1414.0518
 Red. masses --      1.7336                 1.6133                 2.6735
 Frc consts  --      1.9629                 1.8419                 3.1496
 IR Inten    --      1.8115                60.5523                25.2084

                     61                     62                     63
                      A                      A                      A
 Frequencies --   1442.8452              1469.2908              1476.3449
 Red. masses --      1.5665                 1.3114                 1.0831
 Frc consts  --      1.9214                 1.6680                 1.3909
 IR Inten    --     19.5906                28.9267                 1.9060

                     64                     65                     66
                      A                      A                      A
 Frequencies --   1508.9865              1632.7326              1672.4267
 Red. masses --      8.2832                 6.8562                 6.7726
 Frc consts  --     11.1127                10.7687                11.1609
 IR Inten    --     62.1360               446.9783               950.8621

                     67                     68                     69
                      A                      A                      A
 Frequencies --   1731.4161              2971.2260              2993.6617
 Red. masses --      9.9066                 1.0779                 1.0705
 Frc consts  --     17.4975                 5.6066                 5.6524
 IR Inten    --    975.9276                40.3027               160.2248

                     70                     71                     72
                      A                      A                      A
 Frequencies --   3042.7654              3049.9532              3055.7115
 Red. masses --      1.0852                 1.0963                 1.0869
 Frc consts  --      5.9197                 6.0086                 5.9792
 IR Inten    --     31.6807                78.0588                41.2688

                     73                     74                     75
                      A                      A                      A
 Frequencies --   3099.6066              3141.8495              3460.8037
 Red. masses --      1.0888                 1.0878                 1.0714
 Frc consts  --      6.1632                 6.3266                 7.5608
 IR Inten    --     55.1369                 2.6340               865.4168

                     76                     77                     78
                      A                      A                      A
 Frequencies --   3635.3011              3762.2054              3897.9392
 Red. masses --      1.0770                 1.0651                 1.0667
 Frc consts  --      8.3859                 8.8827                 9.5493
 IR Inten    --     23.1026                69.9241                41.0833

 - Thermochemistry -
 -------------------
 Temperature   298.150 Kelvin.  Pressure   1.00000 Atm.
 Atom     1 has atomic number  6 and mass  12.00000

 Molecular mass:   243.06171 amu.
 Principal axes and moments of inertia in atomic units:
                           1         2         3
     Eigenvalues --  1985.464545911.126716889.86019
           X            0.99999   0.00359  -0.00022
           Y           -0.00359   0.99998   0.00488
           Z            0.00024  -0.00488   0.99999
 This molecule is an asymmetric top.
 Rotational symmetry number  1.
 Warning -- assumption of classical behavior for rotation
           may cause significant error
 Rotational temperatures (Kelvin)      0.04362     0.01465     0.01257
 Rotational constants (GHZ):           0.90898     0.30531     0.26194
 Zero-point vibrational energy     564348.9 (Joules/Mol)
                                  134.88263 (Kcal/Mol)
 Warning -- explicit consideration of  22 degrees of freedom as
           vibrations may cause significant error
 Vibrational temperatures:     65.75   101.62   116.62   170.50   188.38
          (Kelvin)            209.35   246.76   279.73   326.68   338.79
                              373.45   394.63   439.30   457.21   521.90
                              584.73   647.74   679.87   727.61   796.49
                              818.13   849.90   904.00   926.49  1010.07
                             1024.89  1037.22  1094.11  1136.42  1153.17
                             1175.91  1247.85  1275.31  1291.40  1388.77
                             1420.50  1423.16  1460.45  1509.29  1543.88
                             1577.62  1608.43  1653.16  1690.90  1707.44
                             1731.53  1786.72  1809.19  1830.25  1835.23
                             1864.53  1881.06  1914.47  1932.30  1939.19
                             1947.72  1964.15  1994.57  2002.83  2034.51
                             2075.93  2113.98  2124.13  2171.10  2349.14
                             2406.25  2491.12  4274.93  4307.21  4377.86
                             4388.20  4396.49  4459.64  4520.42  4979.32
                             5230.39  5412.97  5608.27

 Zero-point correction=                           0.214949 (Hartree/Particle)
 Thermal correction to Energy=                    0.229678
 Thermal correction to Enthalpy=                  0.230622
 Thermal correction to Gibbs Free Energy=         0.173061
 Sum of electronic and zero-point Energies=           -909.483258
 Sum of electronic and thermal Energies=              -909.468529
 Sum of electronic and thermal Enthalpies=            -909.467585
 Sum of electronic and thermal Free Energies=         -909.525146

                     E (Thermal)             CV                S
                      KCal/Mol        Cal/Mol-Kelvin    Cal/Mol-Kelvin
 Total                  144.125             56.455            121.147
 Electronic               0.000              0.000              0.000
 Translational            0.889              2.981             42.365
 Rotational               0.889              2.981             32.758
 Vibrational            142.347             50.494             46.023
 Vibration     1          0.595              1.979              4.995
 Vibration     2          0.598              1.968              4.136
 Vibration     3          0.600              1.962              3.865
 Vibration     4          0.609              1.934              3.125
 Vibration     5          0.612              1.922              2.932
 Vibration     6          0.617              1.908              2.730
 Vibration     7          0.626              1.878              2.419
 Vibration     8          0.635              1.848              2.185
 Vibration     9          0.651              1.800              1.902
 Vibration    10          0.655              1.787              1.837
 Vibration    11          0.668              1.747              1.665
 Vibration    12          0.677              1.721              1.569
 Vibration    13          0.696              1.664              1.388
 Vibration    14          0.704              1.640              1.322
 Vibration    15          0.737              1.549              1.110
 Vibration    16          0.771              1.456              0.939
 Vibration    17          0.809              1.360              0.795
 Vibration    18          0.829              1.311              0.730
 Vibration    19          0.861              1.237              0.644
 Vibration    20          0.909              1.132              0.537
 Vibration    21          0.925              1.099              0.507
 Vibration    22          0.948              1.052              0.466

 Optimization completed.
    -- Stationary point found.
 Normal termination of Gaussian 16 at Sun Oct 27 04:31:05 2024.
