 Gaussian 16, Revision C.01,
 Gaussian 16:  EM64L-G16RevC.01  3-Jul-2019

 ------------------------------------------------------
 # PBE1PBE/aug-cc-pVDZ opt freq EmpiricalDispersion=GD3
 ------------------------------------------------------

 ----
 blah
 ----
 Symbolic Z-matrix:
 Charge =  0 Multiplicity = 1

 SCF Done:  E(RPBE1PBE) =  -910.208860169     A.U. after   14 cycles
 SCF Done:  E(RPBE1PBE) =  -910.218031512     A.U. after   12 cycles
 SCF Done:  E(RPBE1PBE) =  -910.219145487     A.U. after   11 cycles
 SCF Done:  E(RPBE1PBE) =  -910.219290556     A.U. after   11 cycles
 SCF Done:  E(RPBE1PBE) =  -910.219378688     A.U. after   11 cycles
 SCF Done:  E(RPBE1PBE) =  -910.219407812     A.U. after   10 cycles
 SCF Done:  E(RPBE1PBE) =  -910.219417633     A.U. after   10 cycles
 SCF Done:  E(RPBE1PBE) =  -910.219421088     A.U. after    9 cycles
 SCF Done:  E(RPBE1PBE) =  -910.219423315     A.U. after    8 cycles
 SCF Done:  E(RPBE1PBE) =  -910.219425723     A.U. after    9 cycles
 SCF Done:  E(RPBE1PBE) =  -910.219426343     A.U. after    8 cycles
 SCF Done:  E(RPBE1PBE) =  -910.219426890     A.U. after    8 cycles
 SCF Done:  E(RPBE1PBE) =  -910.219427212     A.U. after    8 cycles
 Optimization completed.
    -- Stationary point found.
 Normal termination of Gaussian 16 at Thu Oct 17 07:14:14 2024.

 ----------------------------------------------------------------------
 #N Geom=AllCheck Guess=TCheck SCRF=Check GenChk RPBE1PBE/Aug-CC-pVDZ F
 req
 ----------------------------------------------------------------------

 Structure from the checkpoint file:  "/scr/Gau-2359.chk"
 ----
 blah
 ----
 Charge =  0 Multiplicity = 1

                         Standard orientation:
 ---------------------------------------------------------------------
 Center     Atomic      Atomic             Coordinates (Angstroms)
 Number     Number       Type             X           Y           Z
 ---------------------------------------------------------------------
      1          6           0       -2.060190   -0.198915    0.808978
      2          6           0       -1.157472   -1.354936    0.381066
      3          6           0       -0.415910   -0.743922   -0.816421
      4          8           0       -2.012290   -2.406540   -0.020882
      5          1           0       -0.463454   -1.680945    1.165649
      6          8           0       -1.212374    0.291109   -1.322688
      7          1           0       -0.233022   -1.502250   -1.587558
      8          7           0        0.898514   -0.209092   -0.422259
      9          6           0       -2.399579    0.444811   -0.536581
     10          1           0       -1.465914    0.505552    1.408206
     11          8           0       -3.172745   -0.570095    1.571502
     12          6           0       -2.786376    1.907687   -0.491673
     13          1           0       -3.224069   -0.120555   -1.004675
     14          8           0       -1.824320    2.718567    0.164056
     15          1           0       -3.778503    1.990297   -0.021494
     16          1           0       -2.867814    2.283181   -1.520195
     17          1           0       -3.472470   -1.423194    1.230040
     18          1           0       -1.478630   -3.192260   -0.175489
     19          1           0       -2.039338    2.765840    1.099132
     20          6           0        1.131820    1.129731   -0.233672
     21          6           0        2.345241    1.605461    0.126986
     22          6           0        3.456408    0.696388    0.323958
     23          7           0        3.112220   -0.649336    0.113013
     24          6           0        1.887080   -1.160764   -0.230619
     25          1           0        0.266540    1.771582   -0.393632
     26          1           0        2.514069    2.668391    0.269708
     27          1           0        3.847805   -1.331441    0.253057
     28          8           0        4.595028    0.990106    0.643266
     29          8           0        1.665894   -2.357952   -0.354023
 ---------------------------------------------------------------------

 SCF Done:  E(RPBE1PBE) =  -910.219427212     A.U. after    1 cycles

 The electronic state is 1-A.
 Alpha  occ. eigenvalues --  -19.26811 -19.26631 -19.25434 -19.25067 -19.21853
 Alpha  occ. eigenvalues --  -19.20274 -14.47921 -14.45881 -10.39291 -10.35382
 Alpha  occ. eigenvalues --  -10.35047 -10.31555 -10.31054 -10.31003 -10.30612
 Alpha  occ. eigenvalues --  -10.30203 -10.25185  -1.13915  -1.11980  -1.10046
 Alpha  occ. eigenvalues --   -1.08364  -1.08183  -1.07776  -1.02009  -0.96981
 Alpha  occ. eigenvalues --   -0.84124  -0.82748  -0.80469  -0.73261  -0.72179
 Alpha  occ. eigenvalues --   -0.68264  -0.65881  -0.63996  -0.60841  -0.59012
 Alpha  occ. eigenvalues --   -0.58250  -0.57067  -0.54979  -0.54245  -0.51701
 Alpha  occ. eigenvalues --   -0.51410  -0.50038  -0.49325  -0.48484  -0.47644
 Alpha  occ. eigenvalues --   -0.46382  -0.44607  -0.44278  -0.43695  -0.43414
 Alpha  occ. eigenvalues --   -0.42379  -0.41010  -0.40211  -0.39119  -0.37648
 Alpha  occ. eigenvalues --   -0.36467  -0.34523  -0.32910  -0.32135  -0.31075
 Alpha  occ. eigenvalues --   -0.30832  -0.30235  -0.28391  -0.26151
 Alpha virt. eigenvalues --   -0.04490  -0.01839  -0.00834  -0.00064   0.00036
 Alpha virt. eigenvalues --    0.00384   0.01612   0.02296   0.02503   0.02873
 Alpha virt. eigenvalues --    0.03588   0.03996   0.05077   0.05721   0.05981

 Mulliken charges:
               1
     1  C    0.810451
     2  C    1.333383
     3  C    0.796653
     4  O   -0.757137
     5  H   -0.426178
     6  O   -0.732089
     7  H   -0.545542
     8  N    0.044711
     9  C    0.566585
    10  H   -0.465667
    11  O   -0.610136
    12  C    1.173147
    13  H   -0.540211
    14  O   -0.551079
    15  H   -0.172563
    16  H   -0.247047
    17  H    0.095515
    18  H    0.149982
    19  H    0.186849
    20  C    0.741836
    21  C    1.204152
    22  C    0.380726
    23  N   -0.209127
    24  C    0.527061
    25  H   -0.730432
    26  H   -0.602566
    27  H   -0.111066
    28  O   -0.659725
    29  O   -0.650483
 Sum of Mulliken charges =  -0.00000

 Dipole moment (field-independent basis, Debye):
    X=             -4.6897    Y=             -0.5854    Z=             -0.1403  Tot=              4.7282
 Quadrupole moment (field-independent basis, Debye-Ang):
   XX=           -115.2544   YY=            -97.6309   ZZ=           -100.5888
   XY=             -6.2999   XZ=             -1.1402   YZ=              0.9533

  Exact polarizability:     180.529       8.792     149.542       9.858       4.434     102.870
 Approx polarizability:     236.181      19.693     216.226      19.628      10.961     157.492

                      1                      2                      3
                      A                      A                      A
 Frequencies --     44.3543                51.8879                68.8336
 Red. masses --      8.5975                 5.4023                 6.2055
 Frc consts  --      0.0100                 0.0086                 0.0173
 IR Inten    --      0.2725                 0.8919                 3.9396

                      4                      5                      6
                      A                      A                      A
 Frequencies --     92.0932               116.3112               146.3659
 Red. masses --      6.1399                 4.4656                 6.5573
 Frc consts  --      0.0307                 0.0356                 0.0828
 IR Inten    --      4.0918                 2.3232                 1.4041

                      7                      8                      9
                      A                      A                      A
 Frequencies --    171.0432               193.8579               222.3129
 Red. masses --      9.6354                 8.1614                 2.9533
 Frc consts  --      0.1661                 0.1807                 0.0860
 IR Inten    --      2.9569                16.4399                 6.6038

                     10                     11                     12
                      A                      A                      A
 Frequencies --    246.5354               266.2393               283.5431
 Red. masses --      3.2422                 2.0522                 2.5017
 Frc consts  --      0.1161                 0.0857                 0.1185
 IR Inten    --     26.8624                77.7871                10.1187

                     13                     14                     15
                      A                      A                      A
 Frequencies --    290.3019               302.7914               340.4616
 Red. masses --      2.9563                 3.4239                 1.9737
 Frc consts  --      0.1468                 0.1850                 0.1348
 IR Inten    --     32.8782                17.5699                40.2855

                     16                     17                     18
                      A                      A                      A
 Frequencies --    356.5066               405.3554               420.0706
 Red. masses --      2.5489                 8.2061                 3.1132
 Frc consts  --      0.1909                 0.7944                 0.3237
 IR Inten    --     64.9149                18.6085                 3.8369

                     19                     20                     21
                      A                      A                      A
 Frequencies --    434.3641               443.3670               545.5794
 Red. masses --      1.2585                 3.4163                 6.6852
 Frc consts  --      0.1399                 0.3957                 1.1724
 IR Inten    --     68.3445                17.2844                 8.5408

                     22                     23                     24
                      A                      A                      A
 Frequencies --    561.4410               578.4561               628.3185
 Red. masses --      6.5372                 6.2069                 5.6542
 Frc consts  --      1.2141                 1.2237                 1.3152
 IR Inten    --      7.0217                13.2815                 4.3386

                     25                     26                     27
                      A                      A                      A
 Frequencies --    632.8052               696.0510               723.3208
 Red. masses --      5.0670                 1.1974                 4.3689
 Frc consts  --      1.1955                 0.3418                 1.3467
 IR Inten    --     19.9798                52.6377                14.4938

                     28                     29                     30
                      A                      A                      A
 Frequencies --    730.7263               761.7327               784.0816
 Red. masses --      2.1351                 5.4155                 8.4088
 Frc consts  --      0.6717                 1.8514                 3.0458
 IR Inten    --      1.0000                12.5304                30.8631

                     31                     32                     33
                      A                      A                      A
 Frequencies --    791.7083               831.1683               863.8403
 Red. masses --      7.9810                 2.2319                 3.2976
 Frc consts  --      2.9474                 0.9084                 1.4498
 IR Inten    --     16.8812                50.7727                13.8353

                     34                     35                     36
                      A                      A                      A
 Frequencies --    884.5619               886.4369               968.2064
 Red. masses --      3.0014                 2.7897                 2.6196
 Frc consts  --      1.3837                 1.2915                 1.4468
 IR Inten    --      6.8150                15.1738                19.7893

                     37                     38                     39
                      A                      A                      A
 Frequencies --    987.2083              1010.5626              1012.4306
 Red. masses --      2.6012                 1.6484                 1.5230
 Frc consts  --      1.4936                 0.9918                 0.9198
 IR Inten    --      2.5166                11.3811                 6.6643

                     40                     41                     42
                      A                      A                      A
 Frequencies --   1066.0186              1096.4564              1105.8466
 Red. masses --      2.4039                 2.9953                 3.1047
 Frc consts  --      1.6095                 2.1216                 2.2370
 IR Inten    --      9.7925                47.3766                67.7649

                     43                     44                     45
                      A                      A                      A
 Frequencies --   1113.6905              1156.1433              1163.2299
 Red. masses --      2.1035                 2.6707                 2.0048
 Frc consts  --      1.5371                 2.1033                 1.5982
 IR Inten    --     25.5409               238.8749                64.5292

                     46                     47                     48
                      A                      A                      A
 Frequencies --   1172.8691              1195.2146              1215.8351
 Red. masses --      2.8268                 1.3728                 2.4259
 Frc consts  --      2.2911                 1.1554                 2.1128
 IR Inten    --    140.5365                49.9849                40.8870

                     49                     50                     51
                      A                      A                      A
 Frequencies --   1231.2634              1244.4778              1260.1126
 Red. masses --      1.3560                 2.5816                 1.5569
 Frc consts  --      1.2112                 2.3556                 1.4565
 IR Inten    --     31.3024                14.0164                27.0370

                     52                     53                     54
                      A                      A                      A
 Frequencies --   1287.6078              1303.9505              1328.1290
 Red. masses --      1.4569                 1.5759                 1.2326
 Frc consts  --      1.4231                 1.5787                 1.2811
 IR Inten    --     58.2821               123.6130                11.5885

                     55                     56                     57
                      A                      A                      A
 Frequencies --   1332.2570              1357.3986              1380.3771
 Red. masses --      1.6283                 1.4278                 1.2573
 Frc consts  --      1.7028                 1.5500                 1.4115
 IR Inten    --     10.0919                 7.2686                 7.4462

                     58                     59                     60
                      A                      A                      A
 Frequencies --   1387.6573              1392.1932              1408.2919
 Red. masses --      1.4407                 1.4537                 2.0223
 Frc consts  --      1.6345                 1.6601                 2.3631
 IR Inten    --     11.8628                 8.8823                22.6732

                     61                     62                     63
                      A                      A                      A
 Frequencies --   1412.1121              1425.1202              1432.3010
 Red. masses --      1.5287                 1.7546                 2.4864
 Frc consts  --      1.7960                 2.0996                 3.0053
 IR Inten    --     16.4625                52.2620                35.4204

                     64                     65                     66
                      A                      A                      A
 Frequencies --   1446.4914              1466.1248              1496.7118
 Red. masses --      1.5621                 1.0790                 4.7794
 Frc consts  --      1.9257                 1.3666                 6.3081
 IR Inten    --     23.3728                 6.5815               161.2600

                     67                     68                     69
                      A                      A                      A
 Frequencies --   1689.5312              1781.8956              1797.1921
 Red. masses --      6.5106                 8.8153                10.0874
 Frc consts  --     10.9497                16.4911                19.1963
 IR Inten    --     84.9357               762.0561               648.2228

                     70                     71                     72
                      A                      A                      A
 Frequencies --   3035.5412              3062.2095              3087.3292
 Red. masses --      1.0814                 1.0654                 1.0853
 Frc consts  --      5.8711                 5.8860                 6.0948
 IR Inten    --     17.3505                52.5325                14.9639

                     73                     74                     75
                      A                      A                      A
 Frequencies --   3108.7171              3112.1774              3126.5705
 Red. masses --      1.0877                 1.0889                 1.1042
 Frc consts  --      6.1934                 6.2141                 6.3597
 IR Inten    --     16.5795                18.8891                13.3664

                     76                     77                     78
                      A                      A                      A
 Frequencies --   3233.5828              3271.4156              3630.3773
 Red. masses --      1.0937                 1.0963                 1.0778
 Frc consts  --      6.7380                 6.9125                 8.3691
 IR Inten    --     46.9105                 2.3179                74.8677

                     79                     80                     81
                      A                      A                      A
 Frequencies --   3803.1174              3871.7826              3889.5928
 Red. masses --      1.0654                 1.0668                 1.0671
 Frc consts  --      9.0794                 9.4225                 9.5116
 IR Inten    --     65.1179                70.7247                44.2937

 - Thermochemistry -
 -------------------
 Temperature   298.150 Kelvin.  Pressure   1.00000 Atm.
 Atom     1 has atomic number  6 and mass  12.00000

 Molecular mass:   244.06954 amu.
 Principal axes and moments of inertia in atomic units:
                           1         2         3
     Eigenvalues --  2274.363305440.731976870.63864
           X            0.99997  -0.00820   0.00055
           Y            0.00821   0.99996  -0.00177
           Z           -0.00053   0.00177   1.00000
 This molecule is an asymmetric top.
 Rotational symmetry number  1.
 Warning -- assumption of classical behavior for rotation
           may cause significant error
 Rotational temperatures (Kelvin)      0.03808     0.01592     0.01261
 Rotational constants (GHZ):           0.79351     0.33171     0.26267
 Zero-point vibrational energy     599054.8 (Joules/Mol)
                                  143.17754 (Kcal/Mol)
 Warning -- explicit consideration of  23 degrees of freedom as
           vibrations may cause significant error
 Vibrational temperatures:     63.82    74.66    99.04   132.50   167.35
          (Kelvin)            210.59   246.09   278.92   319.86   354.71
                              383.06   407.96   417.68   435.65   489.85
                              512.93   583.22   604.39   624.95   637.91
                              784.97   807.79   832.27   904.01   910.47
                             1001.46  1040.70  1051.35  1095.96  1128.12
                             1139.09  1195.87  1242.87  1272.69  1275.38
                             1393.03  1420.37  1453.97  1456.66  1533.76
                             1577.56  1591.07  1602.35  1663.43  1673.63
                             1687.50  1719.65  1749.32  1771.51  1790.53
                             1813.02  1852.58  1876.09  1910.88  1916.82
                             1952.99  1986.05  1996.53  2003.06  2026.22
                             2031.71  2050.43  2060.76  2081.18  2109.43
                             2153.43  2430.86  2563.75  2585.76  4367.47
                             4405.84  4441.98  4472.75  4477.73  4498.44
                             4652.40  4706.84  5223.30  5471.84  5570.63
                             5596.26

 Zero-point correction=                           0.228168 (Hartree/Particle)
 Thermal correction to Energy=                    0.243559
 Thermal correction to Enthalpy=                  0.244503
 Thermal correction to Gibbs Free Energy=         0.185286
 Sum of electronic and zero-point Energies=           -909.991259
 Sum of electronic and thermal Energies=              -909.975868
 Sum of electronic and thermal Enthalpies=            -909.974924
 Sum of electronic and thermal Free Energies=         -910.034141

                     E (Thermal)             CV                S
                      KCal/Mol        Cal/Mol-Kelvin    Cal/Mol-Kelvin
 Total                  152.835             58.575            124.632
 Electronic               0.000              0.000              0.000
 Translational            0.889              2.981             42.378
 Rotational               0.889              2.981             32.808
 Vibrational            151.058             52.613             49.446
 Vibration     1          0.595              1.980              5.054
 Vibration     2          0.596              1.977              4.744
 Vibration     3          0.598              1.969              4.186
 Vibration     4          0.602              1.955              3.615
 Vibration     5          0.608              1.936              3.161
 Vibration     6          0.617              1.907              2.719
 Vibration     7          0.626              1.878              2.424
 Vibration     8          0.635              1.848              2.191
 Vibration     9          0.648              1.807              1.940
 Vibration    10          0.661              1.769              1.755
 Vibration    11          0.672              1.735              1.620
 Vibration    12          0.682              1.704              1.512
 Vibration    13          0.686              1.692              1.472
 Vibration    14          0.694              1.668              1.401
 Vibration    15          0.720              1.595              1.210
 Vibration    16          0.732              1.562              1.137
 Vibration    17          0.770              1.459              0.943
 Vibration    18          0.783              1.427              0.892
 Vibration    19          0.795              1.395              0.845
 Vibration    20          0.803              1.376              0.816
 Vibration    21          0.901              1.149              0.553
 Vibration    22          0.917              1.115              0.521
 Vibration    23          0.935              1.078              0.488

                           ! Non-Optimized Parameters !
 Normal termination of Gaussian 16 at Thu Oct 17 07:30:25 2024.
