 Gaussian 16, Revision C.01,
 Gaussian 16:  EM64L-G16RevC.01  3-Jul-2019

 ------------------------------------------------------
 # PBE1PBE/aug-cc-pVDZ opt freq EmpiricalDispersion=GD3
 ------------------------------------------------------

 ----
 blah
 ----
 Symbolic Z-matrix:
 Charge = -1 Multiplicity = 1

 SCF Done:  E(RPBE1PBE) =  -909.659452717     A.U. after   16 cycles
 SCF Done:  E(RPBE1PBE) =  -909.669849540     A.U. after   14 cycles
 SCF Done:  E(RPBE1PBE) =  -909.665275591     A.U. after   13 cycles
 SCF Done:  E(RPBE1PBE) =  -909.671857253     A.U. after   13 cycles
 SCF Done:  E(RPBE1PBE) =  -909.673764966     A.U. after   13 cycles
 SCF Done:  E(RPBE1PBE) =  -909.674708303     A.U. after   12 cycles
 SCF Done:  E(RPBE1PBE) =  -909.675221238     A.U. after   12 cycles
 SCF Done:  E(RPBE1PBE) =  -909.675600546     A.U. after   12 cycles
 SCF Done:  E(RPBE1PBE) =  -909.675979836     A.U. after   12 cycles
 SCF Done:  E(RPBE1PBE) =  -909.676218972     A.U. after   12 cycles
 SCF Done:  E(RPBE1PBE) =  -909.677601509     A.U. after   12 cycles
 SCF Done:  E(RPBE1PBE) =  -909.677702641     A.U. after   11 cycles
 SCF Done:  E(RPBE1PBE) =  -909.677749634     A.U. after   11 cycles
 SCF Done:  E(RPBE1PBE) =  -909.677768629     A.U. after   11 cycles
 SCF Done:  E(RPBE1PBE) =  -909.677777180     A.U. after   10 cycles
 SCF Done:  E(RPBE1PBE) =  -909.677781715     A.U. after   10 cycles
 SCF Done:  E(RPBE1PBE) =  -909.677782289     A.U. after    9 cycles
 SCF Done:  E(RPBE1PBE) =  -909.677782510     A.U. after    8 cycles
 SCF Done:  E(RPBE1PBE) =  -909.677782630     A.U. after    8 cycles
 Optimization completed.
    -- Stationary point found.
 Normal termination of Gaussian 16 at Thu Oct 24 10:08:57 2024.

 ----------------------------------------------------------------------
 #N Geom=AllCheck Guess=TCheck SCRF=Check GenChk RPBE1PBE/Aug-CC-pVDZ F
 req
 ----------------------------------------------------------------------

 Structure from the checkpoint file:  "/scr/Gau-90050.chk"
 ----
 blah
 ----
 Charge = -1 Multiplicity = 1

                         Standard orientation:
 ---------------------------------------------------------------------
 Center     Atomic      Atomic             Coordinates (Angstroms)
 Number     Number       Type             X           Y           Z
 ---------------------------------------------------------------------
      1          6           0       -2.654139    0.601732   -0.239757
      2          6           0       -1.200465    0.892362   -0.640730
      3          6           0       -0.421644    0.304122    0.547180
      4          8           0       -1.013831    2.263223   -0.817933
      5          1           0       -0.935008    0.311674   -1.542563
      6          8           0       -1.137542   -0.869625    0.882476
      7          1           0       -0.437728    1.027872    1.379757
      8          7           0        0.960420   -0.039269    0.273225
      9          6           0       -2.535739   -0.643244    0.650936
     10          1           0       -3.286717    0.402331   -1.119436
     11          8           0       -3.166720    1.689817    0.498240
     12          6           0       -3.089186   -1.921193    0.054267
     13          1           0       -3.038703   -0.430575    1.608374
     14          8           0       -2.468616   -2.248309   -1.173090
     15          1           0       -4.161648   -1.794624   -0.148366
     16          1           0       -2.971006   -2.740512    0.785804
     17          1           0       -2.590032    2.431294    0.235390
     18          1           0       -0.067931    2.416804   -0.494719
     19          1           0       -1.517871   -2.178549   -1.021070
     20          6           0        1.416311   -1.329377    0.247573
     21          6           0        2.727724   -1.587023    0.059757
     22          6           0        3.673604   -0.473902   -0.083119
     23          7           0        3.164442    0.802535   -0.057285
     24          6           0        1.872010    1.035835    0.097957
     25          1           0        0.668114   -2.102997    0.403146
     26          1           0        3.102422   -2.608509    0.039148
     27          8           0        4.885133   -0.694866   -0.220896
     28          8           0        1.355478    2.190643    0.106025
 ---------------------------------------------------------------------

 SCF Done:  E(RPBE1PBE) =  -909.677782630     A.U. after    1 cycles

 The electronic state is 1-A.
 Alpha  occ. eigenvalues --  -19.16007 -19.15043 -19.12730 -19.10991 -19.05481
 Alpha  occ. eigenvalues --  -19.02750 -14.32873 -14.22363 -10.22452 -10.21758
 Alpha  occ. eigenvalues --  -10.20418 -10.20360 -10.19259 -10.18631 -10.17514
 Alpha  occ. eigenvalues --  -10.16578 -10.10411  -1.01967  -0.98076  -0.97135
 Alpha  occ. eigenvalues --   -0.95090  -0.93071  -0.89551  -0.86078  -0.77087
 Alpha  occ. eigenvalues --   -0.71264  -0.69550  -0.66157  -0.60406  -0.55411
 Alpha  occ. eigenvalues --   -0.54405  -0.51464  -0.49311  -0.46810  -0.44990
 Alpha  occ. eigenvalues --   -0.43465  -0.42996  -0.42702  -0.40649  -0.38718
 Alpha  occ. eigenvalues --   -0.37913  -0.36200  -0.34593  -0.33899  -0.33766
 Alpha  occ. eigenvalues --   -0.32043  -0.31068  -0.30470  -0.29400  -0.28029
 Alpha  occ. eigenvalues --   -0.27386  -0.27086  -0.25033  -0.24806  -0.23054
 Alpha  occ. eigenvalues --   -0.21341  -0.20318  -0.19359  -0.18740  -0.15810
 Alpha  occ. eigenvalues --   -0.13535  -0.11846  -0.10796  -0.10477
 Alpha virt. eigenvalues --    0.07105   0.08536   0.08787   0.09693   0.10808
 Alpha virt. eigenvalues --    0.11081   0.11389   0.11800   0.12033   0.12529
 Alpha virt. eigenvalues --    0.13780   0.14960   0.15187   0.15423   0.15684

 Mulliken charges:
               1
     1  C    0.972188
     2  C    0.875125
     3  C    0.608597
     4  O   -0.767293
     5  H   -0.511892
     6  O   -0.769341
     7  H   -0.585238
     8  N    0.081959
     9  C    1.001562
    10  H   -0.374302
    11  O   -0.722326
    12  C    1.159592
    13  H   -0.528824
    14  O   -0.524777
    15  H   -0.275336
    16  H   -0.260686
    17  H    0.188433
    18  H    0.299288
    19  H    0.167293
    20  C    0.710931
    21  C    0.852953
    22  C    0.471500
    23  N   -0.508779
    24  C    0.482992
    25  H   -0.796852
    26  H   -0.587315
    27  O   -0.788177
    28  O   -0.871275
 Sum of Mulliken charges =  -1.00000

 Dipole moment (field-independent basis, Debye):
    X=            -11.6244    Y=             -4.2531    Z=              1.4591  Tot=             12.4637
 Quadrupole moment (field-independent basis, Debye-Ang):
   XX=           -178.9606   YY=           -119.7044   ZZ=           -105.4086
   XY=              0.0168   XZ=              0.3012   YZ=             -1.9506

  Exact polarizability:     204.914     -10.650     155.820      -6.961       0.445     107.367
 Approx polarizability:     268.134     -22.800     224.505     -12.751       3.128     163.540

                      1                      2                      3
                      A                      A                      A
 Frequencies --     26.5872                45.3483                63.8194
 Red. masses --      6.5713                 8.6388                 5.8167
 Frc consts  --      0.0027                 0.0105                 0.0140
 IR Inten    --      2.2486                 0.6944                 6.1615

                      4                      5                      6
                      A                      A                      A
 Frequencies --     79.0356               120.9039               171.4882
 Red. masses --      8.6992                 4.8612                 6.3618
 Frc consts  --      0.0320                 0.0419                 0.1102
 IR Inten    --      1.6467                 1.9543                 3.7532

                      7                      8                      9
                      A                      A                      A
 Frequencies --    174.5035               211.6276               248.2362
 Red. masses --      7.0784                 8.0743                 5.8598
 Frc consts  --      0.1270                 0.2131                 0.2127
 IR Inten    --      3.6342                 1.1951                12.9389

                     10                     11                     12
                      A                      A                      A
 Frequencies --    264.1294               290.5161               325.2377
 Red. masses --      4.7327                 6.6595                 3.4241
 Frc consts  --      0.1945                 0.3312                 0.2134
 IR Inten    --     22.0031                11.7074                 2.8031

                     13                     14                     15
                      A                      A                      A
 Frequencies --    338.1873               370.4589               413.1964
 Red. masses --      5.7928                 5.4781                 3.0486
 Frc consts  --      0.3903                 0.4430                 0.3067
 IR Inten    --     16.0018                 6.0220                16.7950

                     16                     17                     18
                      A                      A                      A
 Frequencies --    428.6300               456.5755               466.2586
 Red. masses --      2.7758                 7.3901                 1.3868
 Frc consts  --      0.3005                 0.9077                 0.1776
 IR Inten    --     41.0760                29.0735                61.8060

                     19                     20                     21
                      A                      A                      A
 Frequencies --    541.8840               556.5089               582.4759
 Red. masses --      6.3705                 5.9385                 9.1560
 Frc consts  --      1.1021                 1.0836                 1.8303
 IR Inten    --     10.4643                 5.2941                 7.2483

                     22                     23                     24
                      A                      A                      A
 Frequencies --    591.2328               631.2420               661.4046
 Red. masses --      1.1292                 5.7772                 5.7705
 Frc consts  --      0.2326                 1.3563                 1.4873
 IR Inten    --     79.1352                20.8064                 9.1240

                     25                     26                     27
                      A                      A                      A
 Frequencies --    721.8165               730.4561               734.7047
 Red. masses --      1.7142                 5.4946                 4.6621
 Frc consts  --      0.5262                 1.7273                 1.4827
 IR Inten    --     11.5293                24.1048                16.0510

                     28                     29                     30
                      A                      A                      A
 Frequencies --    785.0005               792.3391               834.0852
 Red. masses --      8.6132                10.3421                 3.4857
 Frc consts  --      3.1272                 3.8254                 1.4288
 IR Inten    --      7.5082                14.0099                37.4131

                     31                     32                     33
                      A                      A                      A
 Frequencies --    886.9015               906.0366               924.9164
 Red. masses --      3.2161                 3.3561                 2.3283
 Frc consts  --      1.4905                 1.6232                 1.1736
 IR Inten    --      2.1022                 6.5592                18.1409

                     34                     35                     36
                      A                      A                      A
 Frequencies --    934.9227               958.5982               962.8689
 Red. masses --      1.7701                 1.3282                 1.3334
 Frc consts  --      0.9116                 0.7191                 0.7284
 IR Inten    --     10.3383                29.1755                29.0176

                     37                     38                     39
                      A                      A                      A
 Frequencies --    999.7679              1037.2448              1064.2315
 Red. masses --      3.9696                 2.8876                 2.9394
 Frc consts  --      2.3377                 1.8304                 1.9614
 IR Inten    --     23.5478                17.4501                23.2250

                     40                     41                     42
                      A                      A                      A
 Frequencies --   1085.7097              1104.7893              1123.8908
 Red. masses --      3.4096                 1.7670                 1.9403
 Frc consts  --      2.3680                 1.2707                 1.4440
 IR Inten    --      9.6600                51.9944                63.4594

                     43                     44                     45
                      A                      A                      A
 Frequencies --   1136.7913              1165.0902              1175.6427
 Red. masses --      3.6329                 3.6199                 3.2405
 Frc consts  --      2.7661                 2.8951                 2.6388
 IR Inten    --    109.2225               121.5560                51.1262

                     46                     47                     48
                      A                      A                      A
 Frequencies --   1220.2104              1220.5321              1228.5049
 Red. masses --      1.4149                 1.6465                 1.4072
 Frc consts  --      1.2412                 1.4452                 1.2513
 IR Inten    --     17.5806                24.7065                26.0523

                     49                     50                     51
                      A                      A                      A
 Frequencies --   1276.4370              1294.1743              1297.3992
 Red. masses --      1.4284                 1.3548                 1.4569
 Frc consts  --      1.3712                 1.3370                 1.4448
 IR Inten    --     18.9175                62.9271                27.7169

                     52                     53                     54
                      A                      A                      A
 Frequencies --   1310.1797              1339.7813              1345.1298
 Red. masses --      1.7760                 1.6438                 2.1877
 Frc consts  --      1.7962                 1.7385                 2.3322
 IR Inten    --     50.9863               116.5722               122.9428

                     55                     56                     57
                      A                      A                      A
 Frequencies --   1353.4784              1358.2883              1372.1890
 Red. masses --      1.4120                 5.0335                 1.4991
 Frc consts  --      1.5240                 5.4715                 1.6631
 IR Inten    --      2.3959                42.7042                10.4404

                     58                     59                     60
                      A                      A                      A
 Frequencies --   1391.7459              1409.5849              1421.3416
 Red. masses --      1.3586                 1.5517                 1.4670
 Frc consts  --      1.5505                 1.8165                 1.7461
 IR Inten    --    105.5861                42.9164                64.7190

                     61                     62                     63
                      A                      A                      A
 Frequencies --   1431.7993              1477.1076              1485.8240
 Red. masses --      1.6140                 1.0893                 4.1270
 Frc consts  --      1.9494                 1.4002                 5.3680
 IR Inten    --    131.3298                 2.6262                25.1705

                     64                     65                     66
                      A                      A                      A
 Frequencies --   1513.5331              1617.7798              1702.8496
 Red. masses --      1.5538                 4.2926                10.1992
 Frc consts  --      2.0971                 6.6193                17.4249
 IR Inten    --    694.3063               428.7270               195.8816

                     67                     68                     69
                      A                      A                      A
 Frequencies --   1717.4621              2929.9567              3012.9495
 Red. masses --      7.1588                 1.0758                 1.0760
 Frc consts  --     12.4413                 5.4415                 5.7552
 IR Inten    --    842.1754              1379.8018                62.4219

                     70                     71                     72
                      A                      A                      A
 Frequencies --   3013.7749              3037.0015              3047.1734
 Red. masses --      1.0756                 1.0853                 1.0868
 Frc consts  --      5.7558                 5.8979                 5.9455
 IR Inten    --     58.3533                29.9243                46.3885

                     73                     74                     75
                      A                      A                      A
 Frequencies --   3051.9867              3108.8564              3225.4298
 Red. masses --      1.0857                 1.0960                 1.0869
 Frc consts  --      5.9586                 6.2410                 6.6620
 IR Inten    --     74.2246                36.7174                 1.9635

                     76                     77                     78
                      A                      A                      A
 Frequencies --   3247.3036              3630.7066              3818.1081
 Red. masses --      1.0990                 1.0647                 1.0655
 Frc consts  --      6.8283                 8.2695                 9.1516
 IR Inten    --     15.7126               123.8707                64.0045

 - Thermochemistry -
 -------------------
 Temperature   298.150 Kelvin.  Pressure   1.00000 Atm.
 Atom     1 has atomic number  6 and mass  12.00000

 Molecular mass:   243.06171 amu.
 Principal axes and moments of inertia in atomic units:
                           1         2         3
     Eigenvalues --  2008.147115767.267537226.60979
           X            1.00000   0.00237  -0.00050
           Y           -0.00237   0.99999  -0.00349
           Z            0.00049   0.00349   0.99999
 This molecule is an asymmetric top.
 Rotational symmetry number  1.
 Warning -- assumption of classical behavior for rotation
           may cause significant error
 Rotational temperatures (Kelvin)      0.04313     0.01502     0.01199
 Rotational constants (GHZ):           0.89871     0.31293     0.24974
 Zero-point vibrational energy     562447.5 (Joules/Mol)
                                  134.42817 (Kcal/Mol)
 Warning -- explicit consideration of  22 degrees of freedom as
           vibrations may cause significant error
 Vibrational temperatures:     38.25    65.25    91.82   113.71   173.95
          (Kelvin)            246.73   251.07   304.48   357.16   380.02
                              417.99   467.94   486.58   533.01   594.50
                              616.70   656.91   670.84   779.65   800.69
                              838.05   850.65   908.22   951.61  1038.53
                             1050.96  1057.08  1129.44  1140.00  1200.06
                             1276.05  1303.58  1330.75  1345.15  1379.21
                             1385.35  1438.44  1492.36  1531.19  1562.09
                             1589.55  1617.03  1635.59  1676.30  1691.49
                             1755.61  1756.07  1767.54  1836.51  1862.03
                             1866.67  1885.06  1927.65  1935.34  1947.35
                             1954.27  1974.27  2002.41  2028.08  2044.99
                             2060.04  2125.23  2137.77  2177.64  2327.62
                             2450.02  2471.04  4215.55  4334.96  4336.15
                             4369.57  4384.20  4391.13  4472.95  4640.67
                             4672.15  5223.78  5493.41

 Zero-point correction=                           0.214225 (Hartree/Particle)
 Thermal correction to Energy=                    0.228629
 Thermal correction to Enthalpy=                  0.229573
 Thermal correction to Gibbs Free Energy=         0.171535
 Sum of electronic and zero-point Energies=           -909.463558
 Sum of electronic and thermal Energies=              -909.449154
 Sum of electronic and thermal Enthalpies=            -909.448209
 Sum of electronic and thermal Free Energies=         -909.506248

                     E (Thermal)             CV                S
                      KCal/Mol        Cal/Mol-Kelvin    Cal/Mol-Kelvin
 Total                  143.467             55.256            122.152
 Electronic               0.000              0.000              0.000
 Translational            0.889              2.981             42.365
 Rotational               0.889              2.981             32.792
 Vibrational            141.689             49.294             46.994
 Vibration     1          0.593              1.984              6.069
 Vibration     2          0.595              1.979              5.011
 Vibration     3          0.597              1.972              4.335
 Vibration     4          0.600              1.963              3.915
 Vibration     5          0.609              1.932              3.086
 Vibration     6          0.626              1.878              2.419
 Vibration     7          0.627              1.874              2.386
 Vibration     8          0.643              1.823              2.030
 Vibration     9          0.662              1.766              1.743
 Vibration    10          0.671              1.739              1.634
 Vibration    11          0.686              1.691              1.471
 Vibration    12          0.709              1.625              1.284
 Vibration    13          0.718              1.599              1.221
 Vibration    14          0.742              1.533              1.078
 Vibration    15          0.777              1.442              0.915
 Vibration    16          0.790              1.408              0.863
 Vibration    17          0.815              1.346              0.776
 Vibration    18          0.824              1.325              0.748
 Vibration    19          0.897              1.157              0.561
 Vibration    20          0.912              1.125              0.531
 Vibration    21          0.939              1.069              0.481
 Vibration    22          0.949              1.050              0.465

                           ! Non-Optimized Parameters !
 Normal termination of Gaussian 16 at Thu Oct 24 10:23:40 2024.
