 Gaussian 16, Revision C.01,
 Gaussian 16:  EM64L-G16RevC.01  3-Jul-2019

 ------------------------------------------------------
 # PBE1PBE/aug-cc-pVDZ opt freq EmpiricalDispersion=GD3
 ------------------------------------------------------

 ----
 blah
 ----
 Symbolic Z-matrix:
 Charge = -1 Multiplicity = 1

 SCF Done:  E(RPBE1PBE) =  -909.646345173     A.U. after   17 cycles
 SCF Done:  E(RPBE1PBE) =  -909.658592432     A.U. after   14 cycles
 SCF Done:  E(RPBE1PBE) =  -909.660374746     A.U. after   12 cycles
 SCF Done:  E(RPBE1PBE) =  -909.661128920     A.U. after   12 cycles
 SCF Done:  E(RPBE1PBE) =  -909.662350063     A.U. after   12 cycles
 SCF Done:  E(RPBE1PBE) =  -909.664698610     A.U. after   14 cycles
 SCF Done:  E(RPBE1PBE) =  -909.667027992     A.U. after   14 cycles
 SCF Done:  E(RPBE1PBE) =  -909.667860449     A.U. after   12 cycles
 SCF Done:  E(RPBE1PBE) =  -909.662386365     A.U. after   13 cycles
 SCF Done:  E(RPBE1PBE) =  -909.668405292     A.U. after   13 cycles
 SCF Done:  E(RPBE1PBE) =  -909.672218012     A.U. after   11 cycles
 SCF Done:  E(RPBE1PBE) =  -909.672241415     A.U. after   11 cycles
 SCF Done:  E(RPBE1PBE) =  -909.672253446     A.U. after   11 cycles
 SCF Done:  E(RPBE1PBE) =  -909.672259858     A.U. after   10 cycles
 SCF Done:  E(RPBE1PBE) =  -909.672261699     A.U. after   10 cycles
 SCF Done:  E(RPBE1PBE) =  -909.672262733     A.U. after    9 cycles
 SCF Done:  E(RPBE1PBE) =  -909.672263011     A.U. after    8 cycles
 SCF Done:  E(RPBE1PBE) =  -909.672263057     A.U. after    8 cycles
 SCF Done:  E(RPBE1PBE) =  -909.672263064     A.U. after    7 cycles
 Optimization completed.
    -- Stationary point found.
 Normal termination of Gaussian 16 at Thu Oct 24 08:58:01 2024.

 ----------------------------------------------------------------------
 #N Geom=AllCheck Guess=TCheck SCRF=Check GenChk RPBE1PBE/Aug-CC-pVDZ F
 req
 ----------------------------------------------------------------------

 Structure from the checkpoint file:  "/scr/Gau-71938.chk"
 ----
 blah
 ----
 Charge = -1 Multiplicity = 1

                         Standard orientation:
 ---------------------------------------------------------------------
 Center     Atomic      Atomic             Coordinates (Angstroms)
 Number     Number       Type             X           Y           Z
 ---------------------------------------------------------------------
      1          6           0       -2.631200   -0.610606    0.219609
      2          6           0       -1.181071   -0.868091    0.646079
      3          6           0       -0.404222   -0.326319   -0.563138
      4          8           0       -0.973749   -2.226866    0.880185
      5          1           0       -0.919611   -0.244986    1.521777
      6          8           0       -1.128050    0.814415   -0.973708
      7          1           0       -0.395301   -1.097916   -1.351168
      8          7           0        0.969995    0.036133   -0.286948
      9          6           0       -2.512928    0.625692   -0.685687
     10          1           0       -3.293841   -0.420756    1.085704
     11          8           0       -3.111878   -1.719546   -0.503219
     12          6           0       -3.084130    1.904911   -0.102273
     13          1           0       -3.056061    0.404843   -1.620618
     14          8           0       -2.534411    2.285750    1.144718
     15          1           0       -4.182316    1.788518   -0.038324
     16          1           0       -2.870617    2.736174   -0.786972
     17          1           0       -2.531321   -2.447052   -0.209475
     18          1           0       -0.027978   -2.383624    0.545267
     19          1           0       -2.589399    1.537996    1.748036
     20          6           0        1.391060    1.334271   -0.187706
     21          6           0        2.698729    1.607358    0.007298
     22          6           0        3.668563    0.508306    0.078791
     23          7           0        3.180836   -0.777573    0.043414
     24          6           0        1.890779   -1.026031   -0.100586
     25          1           0        0.615476    2.090812   -0.281514
     26          1           0        3.053328    2.633297    0.084513
     27          8           0        4.881124    0.745706    0.178543
     28          8           0        1.383006   -2.187479   -0.084872
 ---------------------------------------------------------------------

 SCF Done:  E(RPBE1PBE) =  -909.672263064     A.U. after    1 cycles

 The electronic state is 1-A.
 Alpha  occ. eigenvalues --  -19.15510 -19.15125 -19.13331 -19.11156 -19.05206
 Alpha  occ. eigenvalues --  -19.02340 -14.32324 -14.21997 -10.22016 -10.21356
 Alpha  occ. eigenvalues --  -10.20624 -10.20452 -10.20119 -10.18884 -10.17087
 Alpha  occ. eigenvalues --  -10.15828 -10.09796  -1.01510  -0.98422  -0.97507
 Alpha  occ. eigenvalues --   -0.95015  -0.93064  -0.89123  -0.85635  -0.76719
 Alpha  occ. eigenvalues --   -0.71456  -0.69406  -0.66005  -0.60548  -0.55192
 Alpha  occ. eigenvalues --   -0.54394  -0.51325  -0.48876  -0.47148  -0.44772
 Alpha  occ. eigenvalues --   -0.44678  -0.43322  -0.41886  -0.39417  -0.38398
 Alpha  occ. eigenvalues --   -0.38052  -0.36598  -0.34279  -0.33848  -0.33750
 Alpha  occ. eigenvalues --   -0.31868  -0.31396  -0.30161  -0.29157  -0.28031
 Alpha  occ. eigenvalues --   -0.27439  -0.26803  -0.24620  -0.24388  -0.22777
 Alpha  occ. eigenvalues --   -0.21549  -0.20262  -0.19285  -0.18867  -0.15555
 Alpha  occ. eigenvalues --   -0.13182  -0.11485  -0.10383  -0.09971
 Alpha virt. eigenvalues --    0.06669   0.07756   0.09012   0.09700   0.10806
 Alpha virt. eigenvalues --    0.11256   0.11641   0.11714   0.12073   0.12825
 Alpha virt. eigenvalues --    0.13822   0.14910   0.15201   0.15343   0.15700

 Mulliken charges:
               1
     1  C    0.998171
     2  C    0.887835
     3  C    0.726373
     4  O   -0.785051
     5  H   -0.552035
     6  O   -0.757088
     7  H   -0.573554
     8  N    0.100070
     9  C    0.798284
    10  H   -0.458791
    11  O   -0.733688
    12  C    1.164761
    13  H   -0.442874
    14  O   -0.531261
    15  H   -0.197229
    16  H   -0.276556
    17  H    0.191879
    18  H    0.309242
    19  H    0.165095
    20  C    0.669463
    21  C    0.870960
    22  C    0.478536
    23  N   -0.518437
    24  C    0.479441
    25  H   -0.772749
    26  H   -0.578164
    27  O   -0.789750
    28  O   -0.872883
 Sum of Mulliken charges =  -1.00000

 Dipole moment (field-independent basis, Debye):
    X=            -13.0516    Y=              3.4416    Z=             -0.4002  Tot=             13.5037
 Quadrupole moment (field-independent basis, Debye-Ang):
   XX=           -175.9049   YY=           -122.5527   ZZ=           -102.3869
   XY=             -0.9224   XZ=             -3.2942   YZ=             -1.3774

  Exact polarizability:     204.319      10.750     155.983       6.241       0.943     108.239
 Approx polarizability:     265.649      23.069     226.366      11.862       3.000     164.604

                      1                      2                      3
                      A                      A                      A
 Frequencies --     25.3034                44.4091                61.9569
 Red. masses --      7.1020                 7.5039                 5.9162
 Frc consts  --      0.0027                 0.0087                 0.0134
 IR Inten    --      0.6610                 0.3796                 9.1248

                      4                      5                      6
                      A                      A                      A
 Frequencies --     80.4124               110.8692               168.9734
 Red. masses --      7.8439                 3.0896                 5.4467
 Frc consts  --      0.0299                 0.0224                 0.0916
 IR Inten    --      2.0798                 5.4494                17.5359

                      7                      8                      9
                      A                      A                      A
 Frequencies --    175.1990               209.3280               236.7302
 Red. masses --      7.6082                 5.5551                 2.7609
 Frc consts  --      0.1376                 0.1434                 0.0912
 IR Inten    --      3.2767                 9.1941                25.9727

                     10                     11                     12
                      A                      A                      A
 Frequencies --    257.1707               279.4716               293.4748
 Red. masses --      6.8270                 2.0956                 6.4439
 Frc consts  --      0.2660                 0.0964                 0.3270
 IR Inten    --      3.6805               127.0700                 7.8664

                     13                     14                     15
                      A                      A                      A
 Frequencies --    330.5836               337.9559               367.0251
 Red. masses --      3.2611                 4.1449                 6.3459
 Frc consts  --      0.2100                 0.2789                 0.5037
 IR Inten    --     35.5167                 1.1735                 3.5127

                     16                     17                     18
                      A                      A                      A
 Frequencies --    415.1946               437.4004               457.1367
 Red. masses --      3.4578                 3.9265                 8.6107
 Frc consts  --      0.3512                 0.4426                 1.0602
 IR Inten    --      2.5938                14.3611                26.1307

                     19                     20                     21
                      A                      A                      A
 Frequencies --    541.1306               557.0056               582.0355
 Red. masses --      6.3104                 5.8866                 9.5080
 Frc consts  --      1.0887                 1.0760                 1.8978
 IR Inten    --      9.5238                 4.3320                10.8199

                     22                     23                     24
                      A                      A                      A
 Frequencies --    601.9269               633.1340               663.2581
 Red. masses --      1.1489                 5.2904                 5.7336
 Frc consts  --      0.2452                 1.2495                 1.4861
 IR Inten    --     78.1319                 8.4242                 7.8078

                     25                     26                     27
                      A                      A                      A
 Frequencies --    724.2906               726.7315               736.1540
 Red. masses --      1.9326                 3.4142                 5.2082
 Frc consts  --      0.5973                 1.0624                 1.6629
 IR Inten    --      9.0405                36.5689                 5.8975

                     28                     29                     30
                      A                      A                      A
 Frequencies --    784.0831               794.5354               834.7958
 Red. masses --      8.2261                10.3387                 3.4027
 Frc consts  --      2.9797                 3.8454                 1.3971
 IR Inten    --      5.3132                16.5199                37.7581

                     31                     32                     33
                      A                      A                      A
 Frequencies --    887.4343               902.1792               924.0124
 Red. masses --      3.4120                 3.8903                 2.4352
 Frc consts  --      1.5832                 1.8656                 1.2250
 IR Inten    --      3.7513                10.3638                 9.3150

                     34                     35                     36
                      A                      A                      A
 Frequencies --    931.3667               966.2385               974.8002
 Red. masses --      2.2327                 1.2703                 1.1964
 Frc consts  --      1.1411                 0.6988                 0.6698
 IR Inten    --     19.2241                 0.7658                67.7277

                     37                     38                     39
                      A                      A                      A
 Frequencies --   1003.8892              1035.3813              1059.5222
 Red. masses --      3.6325                 2.4134                 2.6168
 Frc consts  --      2.1569                 1.5244                 1.7308
 IR Inten    --     17.7345                17.1495                22.3435

                     40                     41                     42
                      A                      A                      A
 Frequencies --   1092.4226              1101.2588              1128.5957
 Red. masses --      3.3826                 2.1462                 2.1936
 Frc consts  --      2.3784                 1.5335                 1.6462
 IR Inten    --      4.0109                20.2344               141.9777

                     43                     44                     45
                      A                      A                      A
 Frequencies --   1143.7459              1166.9246              1179.4011
 Red. masses --      2.5866                 2.9915                 3.0103
 Frc consts  --      1.9936                 2.4000                 2.4671
 IR Inten    --     62.0297               116.2770                46.6133

                     46                     47                     48
                      A                      A                      A
 Frequencies --   1213.5226              1223.8617              1228.3443
 Red. masses --      1.5431                 1.9087                 1.4637
 Frc consts  --      1.3389                 1.6844                 1.3012
 IR Inten    --     33.7595                 3.4541                81.7194

                     49                     50                     51
                      A                      A                      A
 Frequencies --   1273.0870              1299.7271              1316.5949
 Red. masses --      1.4961                 1.4268                 1.5070
 Frc consts  --      1.4287                 1.4201                 1.5391
 IR Inten    --     16.6632                57.0506                23.8043

                     52                     53                     54
                      A                      A                      A
 Frequencies --   1319.2123              1336.2858              1345.4914
 Red. masses --      1.4935                 1.3579                 2.7541
 Frc consts  --      1.5314                 1.4286                 2.9376
 IR Inten    --     47.3711                 3.7906               195.1954

                     55                     56                     57
                      A                      A                      A
 Frequencies --   1355.3919              1361.5131              1374.2457
 Red. masses --      2.7260                 2.0892                 1.4965
 Frc consts  --      2.9505                 2.2818                 1.6651
 IR Inten    --     28.5341                62.9869                 2.2586

                     58                     59                     60
                      A                      A                      A
 Frequencies --   1395.4419              1411.8969              1420.7290
 Red. masses --      1.3303                 1.4958                 1.5424
 Frc consts  --      1.5263                 1.7568                 1.8343
 IR Inten    --    106.0097                32.1314                31.6972

                     61                     62                     63
                      A                      A                      A
 Frequencies --   1431.3589              1470.8285              1487.3054
 Red. masses --      1.5539                 1.0791                 4.0554
 Frc consts  --      1.8757                 1.3754                 5.2855
 IR Inten    --    171.8562                 5.3031                29.5027

                     64                     65                     66
                      A                      A                      A
 Frequencies --   1520.2793              1616.0987              1700.1722
 Red. masses --      1.6143                 3.7191                10.0828
 Frc consts  --      2.1983                 5.7230                17.1719
 IR Inten    --    773.7105               373.4799               198.1936

                     67                     68                     69
                      A                      A                      A
 Frequencies --   1716.5155              2860.1174              2974.1146
 Red. masses --      6.9517                 1.0780                 1.0837
 Frc consts  --     12.0680                 5.1958                 5.6477
 IR Inten    --    832.5169              1477.1878                66.6057

                     70                     71                     72
                      A                      A                      A
 Frequencies --   3000.8430              3003.4437              3035.0187
 Red. masses --      1.0701                 1.0849                 1.0845
 Frc consts  --      5.6774                 5.7660                 5.8860
 IR Inten    --     59.5745                54.5763                61.9645

                     73                     74                     75
                      A                      A                      A
 Frequencies --   3040.6133              3115.2588              3227.3440
 Red. masses --      1.0857                 1.0940                 1.0877
 Frc consts  --      5.9138                 6.2552                 6.6753
 IR Inten    --     60.3337                24.8689                 3.8491

                     76                     77                     78
                      A                      A                      A
 Frequencies --   3250.1976              3622.3327              3859.0075
 Red. masses --      1.0990                 1.0647                 1.0662
 Frc consts  --      6.8404                 8.2314                 9.3548
 IR Inten    --     11.3157               126.4297                18.5825

 - Thermochemistry -
 -------------------
 Temperature   298.150 Kelvin.  Pressure   1.00000 Atm.
 Atom     1 has atomic number  6 and mass  12.00000

 Molecular mass:   243.06171 amu.
 Principal axes and moments of inertia in atomic units:
                           1         2         3
     Eigenvalues --  2021.105355777.702217211.06700
           X            1.00000  -0.00303  -0.00071
           Y            0.00303   0.99999  -0.00165
           Z            0.00071   0.00165   1.00000
 This molecule is an asymmetric top.
 Rotational symmetry number  1.
 Warning -- assumption of classical behavior for rotation
           may cause significant error
 Rotational temperatures (Kelvin)      0.04285     0.01499     0.01201
 Rotational constants (GHZ):           0.89295     0.31236     0.25027
 Zero-point vibrational energy     560875.4 (Joules/Mol)
                                  134.05244 (Kcal/Mol)
 Warning -- explicit consideration of  22 degrees of freedom as
           vibrations may cause significant error
 Vibrational temperatures:     36.41    63.89    89.14   115.70   159.52
          (Kelvin)            243.11   252.07   301.18   340.60   370.01
                              402.10   422.24   475.64   486.24   528.07
                              597.37   629.32   657.72   778.57   801.41
                              837.42   866.04   910.94   954.28  1042.09
                             1045.60  1059.16  1128.12  1143.16  1201.08
                             1276.82  1298.03  1329.45  1340.03  1390.20
                             1402.52  1444.37  1489.68  1524.42  1571.75
                             1584.47  1623.80  1645.60  1678.94  1696.90
                             1745.99  1760.86  1767.31  1831.69  1870.02
                             1894.29  1898.05  1922.62  1935.86  1950.11
                             1958.91  1977.23  2007.73  2031.40  2044.11
                             2059.41  2116.19  2139.90  2187.34  2325.21
                             2446.17  2469.68  4115.07  4279.09  4317.54
                             4321.29  4366.71  4374.76  4482.16  4643.43
                             4676.31  5211.73  5552.25

 Zero-point correction=                           0.213626 (Hartree/Particle)
 Thermal correction to Energy=                    0.228255
 Thermal correction to Enthalpy=                  0.229199
 Thermal correction to Gibbs Free Energy=         0.170592
 Sum of electronic and zero-point Energies=           -909.458637
 Sum of electronic and thermal Energies=              -909.444008
 Sum of electronic and thermal Enthalpies=            -909.443064
 Sum of electronic and thermal Free Energies=         -909.501671

                     E (Thermal)             CV                S
                      KCal/Mol        Cal/Mol-Kelvin    Cal/Mol-Kelvin
 Total                  143.232             55.581            123.349
 Electronic               0.000              0.000              0.000
 Translational            0.889              2.981             42.365
 Rotational               0.889              2.981             32.798
 Vibrational            141.454             49.619             48.185
 Vibration     1          0.593              1.985              6.167
 Vibration     2          0.595              1.980              5.052
 Vibration     3          0.597              1.972              4.394
 Vibration     4          0.600              1.962              3.881
 Vibration     5          0.607              1.940              3.254
 Vibration     6          0.625              1.881              2.447
 Vibration     7          0.627              1.873              2.379
 Vibration     8          0.642              1.827              2.050
 Vibration     9          0.656              1.784              1.827
 Vibration    10          0.667              1.751              1.681
 Vibration    11          0.680              1.712              1.537
 Vibration    12          0.688              1.686              1.454
 Vibration    13          0.713              1.614              1.257
 Vibration    14          0.718              1.600              1.222
 Vibration    15          0.740              1.540              1.092
 Vibration    16          0.779              1.437              0.908
 Vibration    17          0.798              1.389              0.835
 Vibration    18          0.815              1.345              0.774
 Vibration    19          0.896              1.159              0.563
 Vibration    20          0.913              1.124              0.530
 Vibration    21          0.939              1.070              0.482
 Vibration    22          0.960              1.028              0.446

 Optimization completed.
    -- Stationary point found.
 Normal termination of Gaussian 16 at Thu Oct 24 09:12:55 2024.
