 Gaussian 16, Revision C.01,
 Gaussian 16:  EM64L-G16RevC.01  3-Jul-2019

 ------------------------------------------------------
 # PBE1PBE/aug-cc-pVDZ opt freq EmpiricalDispersion=GD3
 ------------------------------------------------------

 ----
 blah
 ----
 Symbolic Z-matrix:
 Charge =  0 Multiplicity = 1

 SCF Done:  E(RPBE1PBE) =  -910.207721474     A.U. after   14 cycles
 SCF Done:  E(RPBE1PBE) =  -910.216752021     A.U. after   12 cycles
 SCF Done:  E(RPBE1PBE) =  -910.218124619     A.U. after   12 cycles
 SCF Done:  E(RPBE1PBE) =  -910.218502062     A.U. after   12 cycles
 SCF Done:  E(RPBE1PBE) =  -910.218671304     A.U. after   12 cycles
 SCF Done:  E(RPBE1PBE) =  -910.218958180     A.U. after   11 cycles
 SCF Done:  E(RPBE1PBE) =  -910.219250864     A.U. after   12 cycles
 SCF Done:  E(RPBE1PBE) =  -910.219322392     A.U. after   10 cycles
 SCF Done:  E(RPBE1PBE) =  -910.219387050     A.U. after   11 cycles
 SCF Done:  E(RPBE1PBE) =  -910.219412487     A.U. after   10 cycles
 SCF Done:  E(RPBE1PBE) =  -910.219419894     A.U. after   11 cycles
 SCF Done:  E(RPBE1PBE) =  -910.219429161     A.U. after   11 cycles
 SCF Done:  E(RPBE1PBE) =  -910.219431112     A.U. after   10 cycles
 SCF Done:  E(RPBE1PBE) =  -910.219431311     A.U. after    8 cycles
 SCF Done:  E(RPBE1PBE) =  -910.219431411     A.U. after    8 cycles
 Optimization completed.
    -- Stationary point found.
 Normal termination of Gaussian 16 at Thu Oct 17 09:59:43 2024.

 ----------------------------------------------------------------------
 #N Geom=AllCheck Guess=TCheck SCRF=Check GenChk RPBE1PBE/Aug-CC-pVDZ F
 req
 ----------------------------------------------------------------------

 Structure from the checkpoint file:  "/scr/Gau-13623.chk"
 ----
 blah
 ----
 Charge =  0 Multiplicity = 1

                         Standard orientation:
 ---------------------------------------------------------------------
 Center     Atomic      Atomic             Coordinates (Angstroms)
 Number     Number       Type             X           Y           Z
 ---------------------------------------------------------------------
      1          6           0       -2.410637   -0.488684    0.622700
      2          6           0       -1.048197   -1.190347    0.436959
      3          6           0       -0.354170   -0.322147   -0.640982
      4          8           0       -1.276124   -2.498009   -0.020766
      5          1           0       -0.459744   -1.193116    1.366336
      6          8           0       -1.119323    0.839796   -0.806047
      7          1           0       -0.322508   -0.904868   -1.577127
      8          7           0        1.020176    0.054396   -0.307821
      9          6           0       -2.483594    0.450858   -0.585828
     10          1           0       -2.390545    0.126746    1.531731
     11          8           0       -3.498309   -1.364041    0.711897
     12          6           0       -3.314462    1.698900   -0.393390
     13          1           0       -2.860400   -0.111436   -1.458865
     14          8           0       -2.887106    2.474029    0.707173
     15          1           0       -4.347376    1.391002   -0.185523
     16          1           0       -3.314689    2.290060   -1.324593
     17          1           0       -3.218988   -2.200915    0.315094
     18          1           0       -0.402127   -2.878530   -0.192615
     19          1           0       -1.981154    2.749228    0.535961
     20          6           0        1.435429    1.354026   -0.167891
     21          6           0        2.718374    1.681289    0.102593
     22          6           0        3.718603    0.641634    0.246173
     23          7           0        3.195718   -0.652206    0.073314
     24          6           0        1.902030   -1.005116   -0.196364
     25          1           0        0.651883    2.095185   -0.296413
     26          1           0        3.027900    2.716116    0.211452
     27          1           0        3.850618   -1.420152    0.162942
     28          8           0        4.901435    0.793022    0.487908
     29          8           0        1.538880   -2.169437   -0.328994
 ---------------------------------------------------------------------

 SCF Done:  E(RPBE1PBE) =  -910.219431411     A.U. after    1 cycles

 The electronic state is 1-A.
 Alpha  occ. eigenvalues --  -19.28101 -19.25139 -19.24452 -19.23625 -19.23604
 Alpha  occ. eigenvalues --  -19.21561 -14.49577 -14.47304 -10.40956 -10.36719
 Alpha  occ. eigenvalues --  -10.35904 -10.32870 -10.31231 -10.30656 -10.30025
 Alpha  occ. eigenvalues --  -10.29706 -10.26734  -1.15088  -1.13161  -1.09686
 Alpha  occ. eigenvalues --   -1.09442  -1.07604  -1.06426  -1.03643  -0.98451
 Alpha  occ. eigenvalues --   -0.85356  -0.82173  -0.80343  -0.73748  -0.73572
 Alpha  occ. eigenvalues --   -0.68827  -0.65744  -0.64272  -0.61647  -0.59699
 Alpha  occ. eigenvalues --   -0.58468  -0.56778  -0.55249  -0.53761  -0.52715
 Alpha  occ. eigenvalues --   -0.51592  -0.50853  -0.50143  -0.49564  -0.48959
 Alpha  occ. eigenvalues --   -0.45862  -0.45568  -0.45293  -0.44097  -0.43684
 Alpha  occ. eigenvalues --   -0.42893  -0.41532  -0.39862  -0.39542  -0.37134
 Alpha  occ. eigenvalues --   -0.35438  -0.34402  -0.33761  -0.32414  -0.31774
 Alpha  occ. eigenvalues --   -0.31430  -0.29804  -0.29110  -0.27469
 Alpha virt. eigenvalues --   -0.05948  -0.01781  -0.01514  -0.00334  -0.00157
 Alpha virt. eigenvalues --    0.00430   0.01556   0.01802   0.02260   0.03126
 Alpha virt. eigenvalues --    0.03473   0.04137   0.04829   0.05221   0.05659

 Mulliken charges:
               1
     1  C    1.009608
     2  C    1.233220
     3  C    0.768787
     4  O   -0.701189
     5  H   -0.523005
     6  O   -0.747138
     7  H   -0.482858
     8  N    0.139541
     9  C    0.406380
    10  H   -0.423350
    11  O   -0.632727
    12  C    1.251550
    13  H   -0.497317
    14  O   -0.495803
    15  H   -0.236362
    16  H   -0.203852
    17  H    0.118168
    18  H    0.150799
    19  H    0.126514
    20  C    0.567225
    21  C    1.198140
    22  C    0.371634
    23  N   -0.205626
    24  C    0.549052
    25  H   -0.745128
    26  H   -0.571896
    27  H   -0.097905
    28  O   -0.648602
    29  O   -0.677859
 Sum of Mulliken charges =   0.00000

 Dipole moment (field-independent basis, Debye):
    X=             -0.9974    Y=              0.8614    Z=             -2.0051  Tot=              2.3994
 Quadrupole moment (field-independent basis, Debye-Ang):
   XX=           -126.8048   YY=            -99.4092   ZZ=            -99.5642
   XY=             -4.4448   XZ=              4.9248   YZ=             -2.2754

  Exact polarizability:     188.976       9.218     147.045       9.861       3.217     100.305
 Approx polarizability:     245.068      18.900     213.155      17.666       9.420     153.272

                      1                      2                      3
                      A                      A                      A
 Frequencies --     32.7782                45.3266                65.0610
 Red. masses --      6.8078                 5.6724                 7.7262
 Frc consts  --      0.0043                 0.0069                 0.0193
 IR Inten    --      2.9208                 1.5360                 1.0924

                      4                      5                      6
                      A                      A                      A
 Frequencies --     73.5570               125.9735               152.0280
 Red. masses --      6.4877                 4.4815                 7.6092
 Frc consts  --      0.0207                 0.0419                 0.1036
 IR Inten    --      3.9459                 1.8494                 3.0340

                      7                      8                      9
                      A                      A                      A
 Frequencies --    178.6446               188.6258               226.7809
 Red. masses --      9.3632                 5.5637                 2.3187
 Frc consts  --      0.1761                 0.1166                 0.0703
 IR Inten    --      2.3258                 1.2773                12.5220

                     10                     11                     12
                      A                      A                      A
 Frequencies --    255.1155               281.2970               301.6072
 Red. masses --      4.2840                 4.8465                 5.9173
 Frc consts  --      0.1643                 0.2259                 0.3171
 IR Inten    --      9.3843                15.5063                12.5675

                     13                     14                     15
                      A                      A                      A
 Frequencies --    310.0123               339.3901               353.9916
 Red. masses --      5.2036                 1.4960                 2.4112
 Frc consts  --      0.2947                 0.1015                 0.1780
 IR Inten    --      1.1505               155.9989                 2.5342

                     16                     17                     18
                      A                      A                      A
 Frequencies --    396.1247               409.2788               413.3323
 Red. masses --      1.7064                 3.6930                 4.2798
 Frc consts  --      0.1578                 0.3645                 0.4308
 IR Inten    --     58.7942                24.5373                16.3368

                     19                     20                     21
                      A                      A                      A
 Frequencies --    452.9942               542.6483               549.2094
 Red. masses --      3.2137                 4.7156                 5.4640
 Frc consts  --      0.3885                 0.8181                 0.9710
 IR Inten    --     20.1759                16.1756                14.8762

                     22                     23                     24
                      A                      A                      A
 Frequencies --    566.1346               577.3200               616.6827
 Red. masses --      1.1970                 5.7426                 6.6917
 Frc consts  --      0.2260                 1.1277                 1.4994
 IR Inten    --     62.5056                16.0601                 5.6623

                     25                     26                     27
                      A                      A                      A
 Frequencies --    634.1590               676.3129               698.5394
 Red. masses --      5.9968                 5.3004                 1.2364
 Frc consts  --      1.4209                 1.4284                 0.3555
 IR Inten    --      6.2867                27.9182                52.9105

                     28                     29                     30
                      A                      A                      A
 Frequencies --    726.1805               743.5082               782.4262
 Red. masses --      1.9416                 4.1457                 7.7120
 Frc consts  --      0.6032                 1.3503                 2.7817
 IR Inten    --      0.6322                24.9373                30.8730

                     31                     32                     33
                      A                      A                      A
 Frequencies --    790.9028               828.0323               872.4572
 Red. masses --      8.2128                 2.3683                 2.5723
 Frc consts  --      3.0268                 0.9567                 1.1536
 IR Inten    --     11.4595                53.9838                 9.5457

                     34                     35                     36
                      A                      A                      A
 Frequencies --    889.0264               917.1355               971.8424
 Red. masses --      4.0705                 2.5905                 2.3917
 Frc consts  --      1.8955                 1.2838                 1.3309
 IR Inten    --      5.0660                11.4170                 3.6495

                     37                     38                     39
                      A                      A                      A
 Frequencies --    984.2643               988.9593              1047.2193
 Red. masses --      1.3500                 2.4310                 3.3522
 Frc consts  --      0.7706                 1.4009                 2.1660
 IR Inten    --      0.6711                 1.8506                15.3565

                     40                     41                     42
                      A                      A                      A
 Frequencies --   1072.3415              1097.6583              1109.1394
 Red. masses --      3.1203                 2.4740                 2.2271
 Frc consts  --      2.1140                 1.7563                 1.6142
 IR Inten    --     75.9115                36.5850                 1.6882

                     43                     44                     45
                      A                      A                      A
 Frequencies --   1138.4801              1154.8926              1173.7555
 Red. masses --      2.7143                 2.6486                 2.5582
 Frc consts  --      2.0728                 2.0814                 2.0766
 IR Inten    --     85.1173               119.9394               109.4610

                     46                     47                     48
                      A                      A                      A
 Frequencies --   1178.6995              1206.1658              1231.8979
 Red. masses --      3.8189                 1.2551                 1.2092
 Frc consts  --      3.1260                 1.0758                 1.0812
 IR Inten    --    158.6445                58.2272                 4.9803

                     49                     50                     51
                      A                      A                      A
 Frequencies --   1241.7610              1248.5510              1274.1281
 Red. masses --      2.1659                 2.7037                 1.5126
 Frc consts  --      1.9677                 2.4832                 1.4468
 IR Inten    --     22.5285                13.7874                31.8742

                     52                     53                     54
                      A                      A                      A
 Frequencies --   1298.4741              1308.3759              1313.4982
 Red. masses --      1.3829                 1.2061                 1.5347
 Frc consts  --      1.3737                 1.2165                 1.5600
 IR Inten    --     66.3871                13.9310               162.2537

                     55                     56                     57
                      A                      A                      A
 Frequencies --   1338.1613              1352.2982              1366.9854
 Red. masses --      1.3496                 1.5790                 1.3067
 Frc consts  --      1.4239                 1.7013                 1.4386
 IR Inten    --     19.8615                 1.5582                13.4351

                     58                     59                     60
                      A                      A                      A
 Frequencies --   1399.2339              1404.5494              1409.5747
 Red. masses --      1.6619                 1.4756                 1.5749
 Frc consts  --      1.9171                 1.7151                 1.8436
 IR Inten    --     22.5214                11.5040                34.1744

                     61                     62                     63
                      A                      A                      A
 Frequencies --   1414.1793              1431.4506              1435.0510
 Red. masses --      1.4340                 1.6775                 2.4962
 Frc consts  --      1.6897                 2.0252                 3.0288
 IR Inten    --     83.4096                 7.7932                93.9926

                     64                     65                     66
                      A                      A                      A
 Frequencies --   1444.3727              1472.4808              1496.4396
 Red. masses --      1.8412                 1.0804                 5.4215
 Frc consts  --      2.2631                 1.3802                 7.1530
 IR Inten    --     30.3106                 6.5369               146.2065

                     67                     68                     69
                      A                      A                      A
 Frequencies --   1693.5771              1775.2506              1803.9485
 Red. masses --      6.8695                 8.7110                 9.7821
 Frc consts  --     11.6087                16.1748                18.7556
 IR Inten    --     73.5942               724.1548               698.2095

                     70                     71                     72
                      A                      A                      A
 Frequencies --   3026.8510              3035.8693              3042.2299
 Red. masses --      1.0772                 1.0848                 1.0758
 Frc consts  --      5.8149                 5.8907                 5.8664
 IR Inten    --      9.4766                13.2505                70.6779

                     73                     74                     75
                      A                      A                      A
 Frequencies --   3064.8558              3102.8111              3130.1871
 Red. masses --      1.0872                 1.0869                 1.0975
 Frc consts  --      6.0168                 6.1652                 6.3357
 IR Inten    --     20.7860                18.8385                 9.0839

                     76                     77                     78
                      A                      A                      A
 Frequencies --   3263.2982              3278.2634              3627.1475
 Red. masses --      1.0889                 1.0995                 1.0779
 Frc consts  --      6.8320                 6.9619                 8.3551
 IR Inten    --      7.5875                 1.3742                82.9857

                     79                     80                     81
                      A                      A                      A
 Frequencies --   3763.2170              3782.5169              3869.5096
 Red. masses --      1.0657                 1.0655                 1.0660
 Frc consts  --      8.8925                 8.9822                 9.4038
 IR Inten    --    192.2755                57.3633                28.8453

 - Thermochemistry -
 -------------------
 Temperature   298.150 Kelvin.  Pressure   1.00000 Atm.
 Atom     1 has atomic number  6 and mass  12.00000

 Molecular mass:   244.06954 amu.
 Principal axes and moments of inertia in atomic units:
                           1         2         3
     Eigenvalues --  2034.396326125.137927700.93302
           X            0.99998  -0.00516   0.00296
           Y            0.00518   0.99998  -0.00473
           Z           -0.00293   0.00474   0.99998
 This molecule is an asymmetric top.
 Rotational symmetry number  1.
 Warning -- assumption of classical behavior for rotation
           may cause significant error
 Rotational temperatures (Kelvin)      0.04257     0.01414     0.01125
 Rotational constants (GHZ):           0.88711     0.29464     0.23435
 Zero-point vibrational energy     599789.7 (Joules/Mol)
                                  143.35318 (Kcal/Mol)
 Warning -- explicit consideration of  24 degrees of freedom as
           vibrations may cause significant error
 Vibrational temperatures:     47.16    65.21    93.61   105.83   181.25
          (Kelvin)            218.73   257.03   271.39   326.29   367.05
                              404.72   433.95   446.04   488.31   509.32
                              569.94   588.86   594.69   651.76   780.75
                              790.19   814.54   830.63   887.27   912.41
                              973.06  1005.04  1044.81  1069.74  1125.74
                             1137.93  1191.35  1255.27  1279.11  1319.55
                             1398.26  1416.14  1422.89  1506.71  1542.86
                             1579.29  1595.80  1638.02  1661.63  1688.77
                             1695.89  1735.40  1772.43  1786.62  1796.39
                             1833.19  1868.21  1882.46  1889.83  1925.32
                             1945.66  1966.79  2013.19  2020.83  2028.06
                             2034.69  2059.54  2064.72  2078.13  2118.57
                             2153.04  2436.68  2554.19  2595.48  4354.96
                             4367.94  4377.09  4409.64  4464.25  4503.64
                             4695.16  4716.69  5218.66  5414.43  5442.20
                             5567.36

 Zero-point correction=                           0.228448 (Hartree/Particle)
 Thermal correction to Energy=                    0.243624
 Thermal correction to Enthalpy=                  0.244568
 Thermal correction to Gibbs Free Energy=         0.185259
 Sum of electronic and zero-point Energies=           -909.990984
 Sum of electronic and thermal Energies=              -909.975807
 Sum of electronic and thermal Enthalpies=            -909.974863
 Sum of electronic and thermal Free Energies=         -910.034172

                     E (Thermal)             CV                S
                      KCal/Mol        Cal/Mol-Kelvin    Cal/Mol-Kelvin
 Total                  152.876             58.005            124.826
 Electronic               0.000              0.000              0.000
 Translational            0.889              2.981             42.378
 Rotational               0.889              2.981             32.928
 Vibrational            151.099             52.043             49.520
 Vibration     1          0.594              1.983              5.654
 Vibration     2          0.595              1.979              5.012
 Vibration     3          0.597              1.971              4.297
 Vibration     4          0.599              1.966              4.056
 Vibration     5          0.611              1.927              3.007
 Vibration     6          0.619              1.900              2.647
 Vibration     7          0.629              1.869              2.343
 Vibration     8          0.633              1.855              2.241
 Vibration     9          0.650              1.800              1.904
 Vibration    10          0.665              1.754              1.695
 Vibration    11          0.681              1.708              1.526
 Vibration    12          0.694              1.671              1.408
 Vibration    13          0.699              1.655              1.362
 Vibration    14          0.719              1.597              1.215
 Vibration    15          0.730              1.567              1.148
 Vibration    16          0.763              1.478              0.977
 Vibration    17          0.774              1.450              0.929
 Vibration    18          0.777              1.441              0.915
 Vibration    19          0.812              1.354              0.787
 Vibration    20          0.898              1.156              0.560
 Vibration    21          0.904              1.141              0.546
 Vibration    22          0.922              1.105              0.512
 Vibration    23          0.934              1.080              0.490
 Vibration    24          0.976              0.997              0.422

 Optimization completed.
    -- Stationary point found.
 Normal termination of Gaussian 16 at Thu Oct 17 10:15:26 2024.
