 Gaussian 16, Revision C.01,
 Gaussian 16:  EM64L-G16RevC.01  3-Jul-2019

 ------------------------------------------------------
 # PBE1PBE/aug-cc-pVDZ opt freq EmpiricalDispersion=GD3
 ------------------------------------------------------

 ----
 blah
 ----
 Symbolic Z-matrix:
 Charge =  0 Multiplicity = 2

 SCF Done:  E(UPBE1PBE) =  -909.513912588     A.U. after   31 cycles
 SCF Done:  E(UPBE1PBE) =  -909.516326880     A.U. after   26 cycles
 SCF Done:  E(UPBE1PBE) =  -909.518911773     A.U. after   24 cycles
 SCF Done:  E(UPBE1PBE) =  -909.521197412     A.U. after   23 cycles
 SCF Done:  E(UPBE1PBE) =  -909.522569074     A.U. after   22 cycles
 SCF Done:  E(UPBE1PBE) =  -909.523287536     A.U. after   22 cycles
 SCF Done:  E(UPBE1PBE) =  -909.523967440     A.U. after   22 cycles
 SCF Done:  E(UPBE1PBE) =  -909.524307557     A.U. after   22 cycles
 SCF Done:  E(UPBE1PBE) =  -909.524394133     A.U. after   21 cycles
 SCF Done:  E(UPBE1PBE) =  -909.524500793     A.U. after   18 cycles
 SCF Done:  E(UPBE1PBE) =  -909.524553319     A.U. after   20 cycles
 SCF Done:  E(UPBE1PBE) =  -909.524561158     A.U. after   20 cycles
 SCF Done:  E(UPBE1PBE) =  -909.524568264     A.U. after   18 cycles
 SCF Done:  E(UPBE1PBE) =  -909.524570617     A.U. after   20 cycles
 SCF Done:  E(UPBE1PBE) =  -909.524572157     A.U. after   19 cycles
 SCF Done:  E(UPBE1PBE) =  -909.524572984     A.U. after   16 cycles
 SCF Done:  E(UPBE1PBE) =  -909.524573073     A.U. after   16 cycles
 SCF Done:  E(UPBE1PBE) =  -909.524573132     A.U. after   16 cycles
 SCF Done:  E(UPBE1PBE) =  -909.524573166     A.U. after    7 cycles
 Optimization completed.
    -- Stationary point found.
 Normal termination of Gaussian 16 at Sun Oct 27 00:15:19 2024.

 ----------------------------------------------------------------------
 #N Geom=AllCheck Guess=TCheck SCRF=Check GenChk UPBE1PBE/Aug-CC-pVDZ F
 req
 ----------------------------------------------------------------------

 Structure from the checkpoint file:  "/scr/Gau-37297.chk"
 ----
 blah
 ----
 Charge =  0 Multiplicity = 2

                         Standard orientation:
 ---------------------------------------------------------------------
 Center     Atomic      Atomic             Coordinates (Angstroms)
 Number     Number       Type             X           Y           Z
 ---------------------------------------------------------------------
      1          6           0        2.709412    0.367640    0.265294
      2          6           0        1.300500    0.859312    0.609687
      3          6           0        0.517086    0.437441   -0.661942
      4          8           0        1.318782    2.230029    0.841516
      5          1           0        0.898901    0.294445    1.466524
      6          8           0        1.178674   -0.648234   -1.226438
      7          1           0        0.454569    1.287669   -1.357463
      8          7           0       -0.867423    0.068343   -0.355472
      9          6           0        2.454392   -0.867480   -0.589426
     10          1           0        3.283578    0.127452    1.177636
     11          8           0        3.379457    1.326468   -0.511371
     12          6           0        2.429832   -2.193815    0.146470
     13          1           0        3.212707   -0.914069   -1.383657
     14          8           0        1.455078   -2.238740    1.178735
     15          1           0        3.439628   -2.416374    0.526029
     16          1           0        2.163597   -2.982461   -0.570061
     17          1           0        3.059673    2.189447   -0.207081
     18          1           0        0.404456    2.542563    0.670047
     19          1           0        1.852625   -1.952120    2.005161
     20          6           0       -1.259211   -1.198302   -0.309365
     21          6           0       -2.597851   -1.466106   -0.072811
     22          6           0       -3.531569   -0.348692    0.044127
     23          7           0       -3.075741    0.928268    0.056287
     24          6           0       -1.786730    1.189414   -0.046985
     25          1           0       -0.498808   -1.956681   -0.478804
     26          1           0       -2.973072   -2.484258   -0.000191
     27          8           0       -4.743589   -0.625222    0.138706
     28          8           0       -1.227259    2.282153    0.070835
 ---------------------------------------------------------------------

 SCF Done:  E(UPBE1PBE) =  -909.524573166     A.U. after    2 cycles

 The electronic state is 2-A.
 Alpha  occ. eigenvalues --  -19.28383 -19.27154 -19.24815 -19.24781 -19.23580
 Alpha  occ. eigenvalues --  -19.21794 -14.53143 -14.39606 -10.38551 -10.36716
 Alpha  occ. eigenvalues --  -10.35095 -10.34626 -10.32553 -10.32216 -10.31965
 Alpha  occ. eigenvalues --  -10.31898 -10.31195  -1.15340  -1.11706  -1.10173
 Alpha  occ. eigenvalues --   -1.09850  -1.09167  -1.07110  -1.04375  -0.95019
 Alpha  occ. eigenvalues --   -0.86544  -0.84022  -0.81045  -0.74636  -0.71970
 Alpha  occ. eigenvalues --   -0.68529  -0.66004  -0.64561  -0.61111  -0.59822
 Alpha  occ. eigenvalues --   -0.59178  -0.57684  -0.56157  -0.53499  -0.52382
 Alpha  occ. eigenvalues --   -0.51407  -0.51163  -0.50047  -0.49429  -0.48744
 Alpha  occ. eigenvalues --   -0.47844  -0.45825  -0.45484  -0.44597  -0.43484
 Alpha  occ. eigenvalues --   -0.42548  -0.41498  -0.39911  -0.39354  -0.36555
 Alpha  occ. eigenvalues --   -0.35584  -0.32860  -0.32849  -0.32264  -0.31695
 Alpha  occ. eigenvalues --   -0.30683  -0.29896  -0.29158  -0.29035
 Alpha virt. eigenvalues --   -0.06543  -0.03084  -0.01772  -0.00938  -0.00288
 Alpha virt. eigenvalues --    0.00258   0.01424   0.02159   0.02289   0.02638
 Alpha virt. eigenvalues --    0.03093   0.04811   0.05170   0.05678   0.05892

  Beta  occ. eigenvalues --  -19.28370 -19.27155 -19.24799 -19.24774 -19.22559
  Beta  occ. eigenvalues --  -19.21820 -14.52381 -14.39536 -10.38626 -10.36738
  Beta  occ. eigenvalues --  -10.35334 -10.34813 -10.32485 -10.32216 -10.31956
  Beta  occ. eigenvalues --  -10.31898 -10.30420  -1.15137  -1.11418  -1.10109
  Beta  occ. eigenvalues --   -1.09835  -1.07569  -1.07021  -1.03571  -0.94503
  Beta  occ. eigenvalues --   -0.85642  -0.83902  -0.80366  -0.74285  -0.71626
  Beta  occ. eigenvalues --   -0.68384  -0.65752  -0.64398  -0.60817  -0.59584
  Beta  occ. eigenvalues --   -0.58997  -0.57534  -0.55963  -0.53145  -0.52331
  Beta  occ. eigenvalues --   -0.51073  -0.50059  -0.49633  -0.49250  -0.48611
  Beta  occ. eigenvalues --   -0.47509  -0.45041  -0.44845  -0.44315  -0.42672
  Beta  occ. eigenvalues --   -0.41055  -0.40655  -0.39738  -0.38930  -0.36425
  Beta  occ. eigenvalues --   -0.35188  -0.32700  -0.32220  -0.31769  -0.31339
  Beta  occ. eigenvalues --   -0.30037  -0.28555  -0.27217
  Beta virt. eigenvalues --   -0.19426  -0.04464  -0.03056  -0.00932  -0.00785
  Beta virt. eigenvalues --   -0.00178   0.00305   0.01473   0.02214   0.02346
  Beta virt. eigenvalues --    0.02653   0.03129   0.04879   0.05206   0.05762

 Mulliken charges and spin densities:
               1          2
     1  C    1.165343   0.007565
     2  C    0.953496   0.032873
     3  C    0.728187  -0.062047
     4  O   -0.673331   0.005131
     5  H   -0.551021   0.001375
     6  O   -0.769000   0.003237
     7  H   -0.528582   0.022372
     8  N    0.121869   0.365521
     9  C    0.894223  -0.002714
    10  H   -0.389883   0.002302
    11  O   -0.719284   0.002130
    12  C    0.927950   0.002068
    13  H   -0.421441   0.000654
    14  O   -0.496643   0.000073
    15  H   -0.251643  -0.000004
    16  H   -0.283330  -0.000149
    17  H    0.183947  -0.000130
    18  H    0.204346   0.000193
    19  H    0.163264  -0.000071
    20  C    0.820968  -0.226233
    21  C    0.815808   0.681555
    22  C    0.527364  -0.195712
    23  N   -0.453963   0.044159
    24  C    0.530287  -0.049287
    25  H   -0.650545   0.014891
    26  H   -0.532582  -0.025535
    27  O   -0.622855   0.382902
    28  O   -0.692947  -0.007119
 Sum of Mulliken charges =  -0.00000   1.00000

 Dipole moment (field-independent basis, Debye):
    X=              6.6596    Y=             -5.6072    Z=              0.5447  Tot=              8.7228
 Quadrupole moment (field-independent basis, Debye-Ang):
   XX=           -124.5894   YY=           -100.4877   ZZ=            -95.0292
   XY=              1.0933   XZ=              6.7454   YZ=             -1.6009

  Exact polarizability:     247.807      12.062     151.488      -8.132       2.161      99.422
 Approx polarizability:     323.204      34.347     231.662     -14.201       3.632     154.056

                      1                      2                      3
                      A                      A                      A
 Frequencies --     27.2503                50.0691                77.7946
 Red. masses --      6.4291                10.2759                 5.6768
 Frc consts  --      0.0028                 0.0152                 0.0202
 IR Inten    --      3.2778                 0.5662                 8.4772

                      4                      5                      6
                      A                      A                      A
 Frequencies --    104.0074               121.1156               156.5594
 Red. masses --      6.4636                 4.2233                 8.7763
 Frc consts  --      0.0412                 0.0365                 0.1267
 IR Inten    --      9.2060                 1.6211                 0.3728

                      7                      8                      9
                      A                      A                      A
 Frequencies --    166.4199               186.0099               215.2664
 Red. masses --      8.2801                 6.4726                 1.5909
 Frc consts  --      0.1351                 0.1319                 0.0434
 IR Inten    --     27.7285                21.7101                97.7207

                     10                     11                     12
                      A                      A                      A
 Frequencies --    230.7163               272.1037               296.0068
 Red. masses --      2.3808                 5.0817                 5.5916
 Frc consts  --      0.0747                 0.2217                 0.2887
 IR Inten    --     38.4781                16.3085                 9.7263

                     13                     14                     15
                      A                      A                      A
 Frequencies --    307.1603               328.0932               347.0037
 Red. masses --      4.7612                 3.2011                 5.7338
 Frc consts  --      0.2647                 0.2030                 0.4068
 IR Inten    --      3.2863                 7.0439                19.7423

                     16                     17                     18
                      A                      A                      A
 Frequencies --    370.4088               418.2368               445.2219
 Red. masses --      3.8234                10.4103                 3.7643
 Frc consts  --      0.3091                 1.0729                 0.4396
 IR Inten    --     25.7741                 9.9932                10.0941

                     19                     20                     21
                      A                      A                      A
 Frequencies --    498.6281               515.0714               549.4693
 Red. masses --      1.3299                 4.4638                 7.9162
 Frc consts  --      0.1948                 0.6977                 1.4082
 IR Inten    --    100.2053                67.8091                51.6704

                     22                     23                     24
                      A                      A                      A
 Frequencies --    565.3152               617.0613               631.9390
 Red. masses --      6.0605                 4.2059                 5.0331
 Frc consts  --      1.1411                 0.9435                 1.1842
 IR Inten    --     40.1960                34.7416                 9.1688

                     25                     26                     27
                      A                      A                      A
 Frequencies --    654.1069               697.9169               721.1140
 Red. masses --      3.0461                 1.3937                 6.1977
 Frc consts  --      0.7679                 0.4000                 1.8988
 IR Inten    --      3.5603                70.8436                10.1576

                     28                     29                     30
                      A                      A                      A
 Frequencies --    731.3161               778.6613               784.9527
 Red. masses --      2.7060                 5.5240                 8.7983
 Frc consts  --      0.8527                 1.9733                 3.1940
 IR Inten    --     12.4463                12.5979                12.8954

                     31                     32                     33
                      A                      A                      A
 Frequencies --    806.7053               872.5443               886.1934
 Red. masses --      1.9811                 3.4994                 4.0030
 Frc consts  --      0.7596                 1.5697                 1.8522
 IR Inten    --     37.7777                 6.6278                23.1240

                     34                     35                     36
                      A                      A                      A
 Frequencies --    908.5407               926.6802               932.1803
 Red. masses --      2.3752                 2.6258                 4.1600
 Frc consts  --      1.1551                 1.3285                 2.1298
 IR Inten    --     11.0882                21.0601                 8.7016

                     37                     38                     39
                      A                      A                      A
 Frequencies --    962.4926              1010.4938              1037.5480
 Red. masses --      1.6183                 2.5734                 2.6194
 Frc consts  --      0.8833                 1.5482                 1.6614
 IR Inten    --      7.6522                13.8699                16.8459

                     40                     41                     42
                      A                      A                      A
 Frequencies --   1065.7655              1076.9919              1094.8153
 Red. masses --      2.7594                 2.2638                 2.8281
 Frc consts  --      1.8467                 1.5471                 1.9973
 IR Inten    --    116.8752                 5.0914               159.4629

                     43                     44                     45
                      A                      A                      A
 Frequencies --   1128.4882              1139.2544              1170.4593
 Red. masses --      2.5041                 2.6306                 3.6651
 Frc consts  --      1.8788                 2.0116                 2.9583
 IR Inten    --     32.8805                88.1959               148.6716

                     46                     47                     48
                      A                      A                      A
 Frequencies --   1178.2804              1186.1669              1213.6477
 Red. masses --      2.7185                 2.6472                 1.4617
 Frc consts  --      2.2237                 2.1945                 1.2685
 IR Inten    --     31.3978               126.4843                65.0507

                     49                     50                     51
                      A                      A                      A
 Frequencies --   1227.0412              1265.1298              1286.9815
 Red. masses --      1.3919                 1.3666                 1.2335
 Frc consts  --      1.2348                 1.2888                 1.2038
 IR Inten    --     33.6492                11.3449                21.5715

                     52                     53                     54
                      A                      A                      A
 Frequencies --   1305.0759              1319.6220              1343.4976
 Red. masses --      1.5574                 1.4067                 1.3470
 Frc consts  --      1.5629                 1.4433                 1.4324
 IR Inten    --      2.6601                 8.5914                11.3191

                     55                     56                     57
                      A                      A                      A
 Frequencies --   1353.7708              1365.9456              1378.4703
 Red. masses --      1.4151                 1.4891                 1.3313
 Frc consts  --      1.5280                 1.6370                 1.4904
 IR Inten    --     28.3759                 3.6330                64.4398

                     58                     59                     60
                      A                      A                      A
 Frequencies --   1382.9158              1391.5445              1394.4114
 Red. masses --      1.4993                 1.3282                 4.0409
 Frc consts  --      1.6894                 1.5153                 4.6292
 IR Inten    --    154.9131                13.1250                19.0060

                     61                     62                     63
                      A                      A                      A
 Frequencies --   1424.5964              1434.4492              1466.1473
 Red. masses --      1.9559                 2.0350                 2.5368
 Frc consts  --      2.3387                 2.4671                 3.2129
 IR Inten    --     77.5187               238.6105                73.5105

                     64                     65                     66
                      A                      A                      A
 Frequencies --   1470.4561              1505.9390              1546.0806
 Red. masses --      1.0904                 4.9418                 4.4273
 Frc consts  --      1.3891                 6.6032                 6.2352
 IR Inten    --     12.2679               111.3437                 5.2646

                     67                     68                     69
                      A                      A                      A
 Frequencies --   1757.6072              3018.1108              3050.3482
 Red. masses --     10.7919                 1.0847                 1.0849
 Frc consts  --     19.6423                 5.8215                 5.9474
 IR Inten    --    306.8472                31.1590                32.8713

                     70                     71                     72
                      A                      A                      A
 Frequencies --   3053.6353              3079.0147              3098.8737
 Red. masses --      1.0631                 1.0848                 1.0869
 Frc consts  --      5.8406                 6.0591                 6.1498
 IR Inten    --     29.0359                 5.9235                27.2943

                     73                     74                     75
                      A                      A                      A
 Frequencies --   3120.2695              3254.0933              3267.0498
 Red. masses --      1.1042                 1.0894                 1.0981
 Frc consts  --      6.3341                 6.7967                 6.9057
 IR Inten    --     15.2861                 4.9565                 3.3528

                     76                     77                     78
                      A                      A                      A
 Frequencies --   3502.1033              3752.2389              3886.4927
 Red. masses --      1.0673                 1.0652                 1.0672
 Frc consts  --      7.7125                 8.8362                 9.4973
 IR Inten    --    404.6450                77.7437                45.0749

 - Thermochemistry -
 -------------------
 Temperature   298.150 Kelvin.  Pressure   1.00000 Atm.
 Atom     1 has atomic number  6 and mass  12.00000

 Molecular mass:   243.06171 amu.
 Principal axes and moments of inertia in atomic units:
                           1         2         3
     Eigenvalues --  2045.480735319.072636700.69391
           X            0.99998  -0.00466   0.00336
           Y            0.00467   0.99998  -0.00324
           Z           -0.00334   0.00326   0.99999
 This molecule is an asymmetric top.
 Rotational symmetry number  1.
 Warning -- assumption of classical behavior for rotation
           may cause significant error
 Rotational temperatures (Kelvin)      0.04234     0.01628     0.01293
 Rotational constants (GHZ):           0.88231     0.33930     0.26934
 Zero-point vibrational energy     557245.4 (Joules/Mol)
                                  133.18485 (Kcal/Mol)
 Warning -- explicit consideration of  23 degrees of freedom as
           vibrations may cause significant error
 Vibrational temperatures:     39.21    72.04   111.93   149.64   174.26
          (Kelvin)            225.25   239.44   267.63   309.72   331.95
                              391.50   425.89   441.94   472.05   499.26
                              532.94   601.75   640.58   717.41   741.07
                              790.56   813.36   887.81   909.22   941.11
                             1004.15  1037.52  1052.20  1120.32  1129.37
                             1160.67  1255.40  1275.03  1307.19  1333.29
                             1341.20  1384.81  1453.88  1492.80  1533.40
                             1549.55  1575.20  1623.64  1639.13  1684.03
                             1695.28  1706.63  1746.17  1765.44  1820.24
                             1851.68  1877.71  1898.64  1932.99  1947.77
                             1965.29  1983.31  1989.71  2002.12  2006.25
                             2049.68  2063.85  2109.46  2115.66  2166.71
                             2224.47  2528.80  4342.39  4388.77  4393.50
                             4430.02  4458.59  4489.37  4681.91  4700.56
                             5038.75  5398.63  5591.80

 Zero-point correction=                           0.212244 (Hartree/Particle)
 Thermal correction to Energy=                    0.227342
 Thermal correction to Enthalpy=                  0.228286
 Thermal correction to Gibbs Free Energy=         0.168732
 Sum of electronic and zero-point Energies=           -909.312330
 Sum of electronic and thermal Energies=              -909.297232
 Sum of electronic and thermal Enthalpies=            -909.296287
 Sum of electronic and thermal Free Energies=         -909.355841

                     E (Thermal)             CV                S
                      KCal/Mol        Cal/Mol-Kelvin    Cal/Mol-Kelvin
 Total                  142.659             57.588            125.342
 Electronic               0.000              0.000              1.377
 Translational            0.889              2.981             42.365
 Rotational               0.889              2.981             32.655
 Vibrational            140.882             51.627             48.944
 Vibration     1          0.593              1.984              6.020
 Vibration     2          0.595              1.978              4.815
 Vibration     3          0.599              1.964              3.946
 Vibration     4          0.605              1.946              3.378
 Vibration     5          0.609              1.932              3.082
 Vibration     6          0.620              1.895              2.591
 Vibration     7          0.624              1.884              2.476
 Vibration     8          0.632              1.859              2.267
 Vibration     9          0.645              1.818              1.999
 Vibration    10          0.652              1.794              1.873
 Vibration    11          0.675              1.725              1.583
 Vibration    12          0.690              1.681              1.439
 Vibration    13          0.697              1.660              1.378
 Vibration    14          0.711              1.619              1.269
 Vibration    15          0.725              1.581              1.180
 Vibration    16          0.742              1.533              1.078
 Vibration    17          0.781              1.431              0.898
 Vibration    18          0.805              1.371              0.810
 Vibration    19          0.854              1.253              0.662
 Vibration    20          0.870              1.217              0.621
 Vibration    21          0.905              1.141              0.545
 Vibration    22          0.921              1.106              0.513
 Vibration    23          0.977              0.996              0.421

                           ! Non-Optimized Parameters !
 Normal termination of Gaussian 16 at Sun Oct 27 00:41:56 2024.
