 Gaussian 16, Revision C.01,
 Gaussian 16:  EM64L-G16RevC.01  3-Jul-2019

 ------------------------------------------------------
 # PBE1PBE/aug-cc-pVDZ opt freq EmpiricalDispersion=GD3
 ------------------------------------------------------

 ----
 blah
 ----
 Symbolic Z-matrix:
 Charge =  0 Multiplicity = 1

 SCF Done:  E(RPBE1PBE) =  -910.212140295     A.U. after   14 cycles
 SCF Done:  E(RPBE1PBE) =  -910.229459249     A.U. after   13 cycles
 SCF Done:  E(RPBE1PBE) =  -910.229899158     A.U. after   13 cycles
 SCF Done:  E(RPBE1PBE) =  -910.231263983     A.U. after   12 cycles
 SCF Done:  E(RPBE1PBE) =  -910.231632266     A.U. after   12 cycles
 SCF Done:  E(RPBE1PBE) =  -910.231924022     A.U. after   12 cycles
 SCF Done:  E(RPBE1PBE) =  -910.232084675     A.U. after   11 cycles
 SCF Done:  E(RPBE1PBE) =  -910.232188985     A.U. after   12 cycles
 SCF Done:  E(RPBE1PBE) =  -910.232276733     A.U. after   11 cycles
 SCF Done:  E(RPBE1PBE) =  -910.232292802     A.U. after   10 cycles
 SCF Done:  E(RPBE1PBE) =  -910.232300041     A.U. after   11 cycles
 SCF Done:  E(RPBE1PBE) =  -910.232301684     A.U. after    9 cycles
 SCF Done:  E(RPBE1PBE) =  -910.232302568     A.U. after    9 cycles
 SCF Done:  E(RPBE1PBE) =  -910.232302689     A.U. after    8 cycles
 Optimization completed.
    -- Stationary point found.
 Normal termination of Gaussian 16 at Thu Oct 24 14:28:50 2024.

 ----------------------------------------------------------------------
 #N Geom=AllCheck Guess=TCheck SCRF=Check GenChk RPBE1PBE/Aug-CC-pVDZ F
 req
 ----------------------------------------------------------------------

 Structure from the checkpoint file:  "/scr/Gau-40980.chk"
 ----
 blah
 ----
 Charge =  0 Multiplicity = 1

                         Standard orientation:
 ---------------------------------------------------------------------
 Center     Atomic      Atomic             Coordinates (Angstroms)
 Number     Number       Type             X           Y           Z
 ---------------------------------------------------------------------
      1          6           0       -2.777373   -0.496369    0.178863
      2          6           0       -1.347221   -0.883467    0.560219
      3          6           0       -0.564567   -0.363030   -0.659473
      4          8           0       -1.273610   -2.272751    0.748906
      5          1           0       -1.042561   -0.325610    1.458895
      6          8           0       -1.231942    0.815834   -1.065757
      7          1           0       -0.629538   -1.134863   -1.448400
      8          6           0        0.878040   -0.051020   -0.398091
      9          6           0       -2.586559    0.808583   -0.590917
     10          1           0       -3.411498   -0.358817    1.068935
     11          8           0       -3.326872   -1.463699   -0.688645
     12          6           0       -2.843230    2.063873    0.212357
     13          1           0       -3.264113    0.805289   -1.458001
     14          8           0       -2.061816    2.027439    1.396208
     15          1           0       -3.921683    2.108573    0.442979
     16          1           0       -2.582468    2.937882   -0.407768
     17          1           0       -2.942633   -2.308545   -0.410412
     18          1           0       -0.347229   -2.536230    0.596341
     19          1           0       -2.272011    2.797097    1.930557
     20          6           0        1.391534    1.195285   -0.508029
     21          7           0        2.716083    1.459438   -0.281619
     22          6           0        3.643769    0.497212    0.063161
     23          7           0        3.094131   -0.766034    0.169512
     24          6           0        1.765589   -1.129987   -0.006655
     25          1           0        0.762622    2.038700   -0.782658
     26          1           0        3.082544    2.396105   -0.368682
     27          1           0        3.734346   -1.501609    0.444423
     28          8           0        4.818838    0.738795    0.255651
     29          8           0        1.425757   -2.297903    0.179880
 ---------------------------------------------------------------------

 SCF Done:  E(RPBE1PBE) =  -910.232302689     A.U. after    1 cycles

 The electronic state is 1-A.
 Alpha  occ. eigenvalues --  -19.24480 -19.24402 -19.22740 -19.22398 -19.21969
 Alpha  occ. eigenvalues --  -19.21959 -14.48245 -14.47152 -10.39918 -10.37385
 Alpha  occ. eigenvalues --  -10.32110 -10.30116 -10.29367 -10.29203 -10.28640
 Alpha  occ. eigenvalues --  -10.28505 -10.26870  -1.13024  -1.10432  -1.09895
 Alpha  occ. eigenvalues --   -1.07390  -1.06561  -1.04229  -1.02738  -0.97736
 Alpha  occ. eigenvalues --   -0.86005  -0.80749  -0.78426  -0.73346  -0.70940
 Alpha  occ. eigenvalues --   -0.70062  -0.64812  -0.61966  -0.60559  -0.58801
 Alpha  occ. eigenvalues --   -0.56785  -0.54981  -0.53937  -0.52751  -0.52357
 Alpha  occ. eigenvalues --   -0.51481  -0.50582  -0.49975  -0.47702  -0.46844
 Alpha  occ. eigenvalues --   -0.45310  -0.44508  -0.44390  -0.43629  -0.42559
 Alpha  occ. eigenvalues --   -0.41317  -0.39978  -0.38782  -0.37351  -0.36768
 Alpha  occ. eigenvalues --   -0.33472  -0.32676  -0.32185  -0.31012  -0.30603
 Alpha  occ. eigenvalues --   -0.29603  -0.29087  -0.28773  -0.26139
 Alpha virt. eigenvalues --   -0.05737  -0.01970  -0.00780  -0.00667   0.00478
 Alpha virt. eigenvalues --    0.00947   0.01836   0.02224   0.02845   0.03261
 Alpha virt. eigenvalues --    0.03555   0.04302   0.05214   0.05515   0.06032

 Mulliken charges:
               1
     1  C    1.111073
     2  C    0.768358
     3  C    0.833211
     4  O   -0.656646
     5  H   -0.534449
     6  O   -0.787591
     7  H   -0.355181
     8  C    0.582884
     9  C    0.816346
    10  H   -0.394872
    11  O   -0.721006
    12  C    0.986618
    13  H   -0.460623
    14  O   -0.568116
    15  H   -0.204743
    16  H   -0.265368
    17  H    0.170913
    18  H    0.176569
    19  H    0.130620
    20  C    1.357324
    21  N   -0.514593
    22  C    0.706911
    23  N   -0.389584
    24  C    0.531624
    25  H   -0.745413
    26  H   -0.078509
    27  H   -0.061495
    28  O   -0.581825
    29  O   -0.852438
 Sum of Mulliken charges =  -0.00000

 Dipole moment (field-independent basis, Debye):
    X=             -0.8591    Y=              4.9498    Z=              0.2430  Tot=              5.0296
 Quadrupole moment (field-independent basis, Debye-Ang):
   XX=           -112.3693   YY=            -90.5396   ZZ=            -99.3080
   XY=             -9.9716   XZ=             -6.1890   YZ=              2.0218

  Exact polarizability:     180.883       9.068     151.256       5.669      -3.599     101.837
 Approx polarizability:     225.484      21.351     235.159       9.098      -8.471     154.895

                      1                      2                      3
                      A                      A                      A
 Frequencies --     29.2261                43.1720                78.2276
 Red. masses --      6.2974                 7.3329                 7.1142
 Frc consts  --      0.0032                 0.0081                 0.0257
 IR Inten    --      0.2244                 0.5814                 5.5445

                      4                      5                      6
                      A                      A                      A
 Frequencies --    101.3064               125.5098               150.3756
 Red. masses --      7.8054                 4.3564                 8.2673
 Frc consts  --      0.0472                 0.0404                 0.1101
 IR Inten    --      0.7970                 0.6435                10.2836

                      7                      8                      9
                      A                      A                      A
 Frequencies --    169.8198               190.2830               219.7803
 Red. masses --      8.4786                 7.2751                 2.8420
 Frc consts  --      0.1441                 0.1552                 0.0809
 IR Inten    --      1.1419                 0.0586                34.5632

                     10                     11                     12
                      A                      A                      A
 Frequencies --    253.8589               257.0346               291.1698
 Red. masses --      1.4062                 4.4759                 5.5806
 Frc consts  --      0.0534                 0.1742                 0.2788
 IR Inten    --     73.8412                 2.0706                 4.0242

                     13                     14                     15
                      A                      A                      A
 Frequencies --    310.7443               341.1522               350.8282
 Red. masses --      4.8627                 3.5301                 5.6481
 Frc consts  --      0.2767                 0.2421                 0.4096
 IR Inten    --      4.5836                 0.7250                25.7459

                     16                     17                     18
                      A                      A                      A
 Frequencies --    402.9802               413.1128               451.5949
 Red. masses --      3.2933                 9.7273                 3.0929
 Frc consts  --      0.3151                 0.9781                 0.3716
 IR Inten    --     16.5758                22.5626                16.9228

                     19                     20                     21
                      A                      A                      A
 Frequencies --    493.9391               533.7826               557.0298
 Red. masses --      1.2743                 4.9135                 7.2468
 Frc consts  --      0.1832                 0.8248                 1.3248
 IR Inten    --     97.7821                14.2800                18.5239

                     22                     23                     24
                      A                      A                      A
 Frequencies --    567.1554               604.9150               606.3262
 Red. masses --      6.4771                 1.1704                 4.1762
 Frc consts  --      1.2275                 0.2523                 0.9046
 IR Inten    --      5.5037                45.2568                25.7119

                     25                     26                     27
                      A                      A                      A
 Frequencies --    650.9130               658.5111               703.3620
 Red. masses --      1.1765                 5.2179                 1.1994
 Frc consts  --      0.2937                 1.3331                 0.3496
 IR Inten    --     74.1531                 8.3152                56.4794

                     28                     29                     30
                      A                      A                      A
 Frequencies --    716.1292               758.0632               769.2442
 Red. masses --      3.7080                 5.8528                 8.5436
 Frc consts  --      1.1204                 1.9817                 2.9786
 IR Inten    --     10.0182                12.1493                32.3583

                     31                     32                     33
                      A                      A                      A
 Frequencies --    793.7686               799.3919               883.6535
 Red. masses --      7.3401                 8.2704                 3.5605
 Frc consts  --      2.7248                 3.1139                 1.6380
 IR Inten    --     20.2827                10.9052                13.3660

                     34                     35                     36
                      A                      A                      A
 Frequencies --    904.8209               930.8613               940.2497
 Red. masses --      4.0739                 2.4755                 1.9005
 Frc consts  --      1.9651                 1.2638                 0.9899
 IR Inten    --     30.3904                 5.5590                 7.0371

                     37                     38                     39
                      A                      A                      A
 Frequencies --    958.7032               996.2519              1019.5845
 Red. masses --      1.7264                 2.6830                 2.3494
 Frc consts  --      0.9349                 1.5690                 1.4390
 IR Inten    --     25.3578                 5.1584                21.9638

                     40                     41                     42
                      A                      A                      A
 Frequencies --   1072.7203              1091.7939              1123.9342
 Red. masses --      3.0129                 3.3626                 3.4059
 Frc consts  --      2.0427                 2.3616                 2.5349
 IR Inten    --     19.9958                11.8008                78.5597

                     43                     44                     45
                      A                      A                      A
 Frequencies --   1134.0675              1155.5176              1164.5169
 Red. masses --      2.6781                 3.2777                 2.9017
 Frc consts  --      2.0293                 2.5785                 2.3184
 IR Inten    --     30.0230               146.5296                27.2394

                     46                     47                     48
                      A                      A                      A
 Frequencies --   1180.5711              1220.1895              1226.2032
 Red. masses --      2.2101                 1.1744                 1.7048
 Frc consts  --      1.8148                 1.0302                 1.5102
 IR Inten    --     89.8294                18.3029               121.2732

                     49                     50                     51
                      A                      A                      A
 Frequencies --   1231.9135              1257.0828              1259.7357
 Red. masses --      1.3749                 1.7940                 1.3299
 Frc consts  --      1.2294                 1.6703                 1.2434
 IR Inten    --     88.0783                 9.7528                 7.4938

                     52                     53                     54
                      A                      A                      A
 Frequencies --   1276.5724              1293.6689              1325.8493
 Red. masses --      1.3346                 1.1661                 1.2690
 Frc consts  --      1.2814                 1.1499                 1.3143
 IR Inten    --     21.3766                10.6416                 3.3497

                     55                     56                     57
                      A                      A                      A
 Frequencies --   1341.2806              1355.4865              1375.7856
 Red. masses --      1.4653                 1.4740                 1.6887
 Frc consts  --      1.5532                 1.5957                 1.8833
 IR Inten    --     13.5391                 4.5451                39.0461

                     58                     59                     60
                      A                      A                      A
 Frequencies --   1381.9679              1395.6281              1406.1657
 Red. masses --      1.5926                 1.6192                 1.8345
 Frc consts  --      1.7920                 1.8582                 2.1372
 IR Inten    --     44.1048                35.6856                 1.2637

                     61                     62                     63
                      A                      A                      A
 Frequencies --   1425.7982              1444.7188              1447.7841
 Red. masses --      1.6701                 1.8705                 1.9200
 Frc consts  --      2.0003                 2.3002                 2.3711
 IR Inten    --     19.9689                 4.4727                74.1445

                     64                     65                     66
                      A                      A                      A
 Frequencies --   1456.2421              1481.8891              1536.7527
 Red. masses --      1.9359                 1.0844                 4.7099
 Frc consts  --      2.4188                 1.4030                 6.5535
 IR Inten    --     76.9651                 7.5127               163.2562

                     67                     68                     69
                      A                      A                      A
 Frequencies --   1716.7440              1746.4170              1832.4733
 Red. masses --      7.2688                 8.2672                 8.1250
 Frc consts  --     12.6218                14.8562                16.0749
 IR Inten    --      0.3091               622.0080               914.3692

                     70                     71                     72
                      A                      A                      A
 Frequencies --   3008.8027              3015.5733              3052.3814
 Red. masses --      1.0824                 1.0572                 1.0859
 Frc consts  --      5.7731                 5.6644                 5.9610
 IR Inten    --     19.3466                47.0528                18.3786

                     73                     74                     75
                      A                      A                      A
 Frequencies --   3066.1916              3071.9751              3078.0621
 Red. masses --      1.1064                 1.0869                 1.0861
 Frc consts  --      6.1285                 6.0434                 6.0626
 IR Inten    --     37.3858                34.7897                41.6679

                     76                     77                     78
                      A                      A                      A
 Frequencies --   3252.8162              3606.0825              3628.9211
 Red. masses --      1.0945                 1.0679                 1.0778
 Frc consts  --      6.8229                 8.1821                 8.3628
 IR Inten    --      1.0132               501.7677                68.6085

                     79                     80                     81
                      A                      A                      A
 Frequencies --   3669.7811              3755.4008              3894.9640
 Red. masses --      1.0790                 1.0651                 1.0669
 Frc consts  --      8.5618                 8.8504                 9.5363
 IR Inten    --    108.9845                69.0768                45.2589

 - Thermochemistry -
 -------------------
 Temperature   298.150 Kelvin.  Pressure   1.00000 Atm.
 Atom     1 has atomic number  6 and mass  12.00000

 Molecular mass:   244.06954 amu.
 Principal axes and moments of inertia in atomic units:
                           1         2         3
     Eigenvalues --  2075.650775879.463267231.85206
           X            0.99994  -0.01098  -0.00256
           Y            0.01099   0.99994   0.00287
           Z            0.00253  -0.00289   0.99999
 This molecule is an asymmetric top.
 Rotational symmetry number  1.
 Warning -- assumption of classical behavior for rotation
           may cause significant error
 Rotational temperatures (Kelvin)      0.04173     0.01473     0.01198
 Rotational constants (GHZ):           0.86948     0.30696     0.24955
 Zero-point vibrational energy     601047.3 (Joules/Mol)
                                  143.65374 (Kcal/Mol)
 Warning -- explicit consideration of  24 degrees of freedom as
           vibrations may cause significant error
 Vibrational temperatures:     42.05    62.11   112.55   145.76   180.58
          (Kelvin)            216.36   244.33   273.77   316.21   365.25
                              369.82   418.93   447.09   490.84   504.76
                              579.80   594.38   649.74   710.67   767.99
                              801.44   816.01   870.34   872.37   936.52
                              947.45  1011.98  1030.35  1090.68  1106.77
                             1142.06  1150.15  1271.38  1301.84  1339.30
                             1352.81  1379.36  1433.38  1466.95  1543.41
                             1570.85  1617.09  1631.67  1662.53  1675.48
                             1698.58  1755.58  1764.23  1772.45  1808.66
                             1812.48  1836.70  1861.30  1907.60  1929.80
                             1950.24  1979.45  1988.34  2008.00  2023.16
                             2051.41  2078.63  2083.04  2095.21  2132.11
                             2211.04  2470.01  2512.70  2636.52  4329.00
                             4338.74  4391.70  4411.57  4419.89  4428.64
                             4680.08  5188.35  5221.21  5280.00  5403.18
                             5603.98

 Zero-point correction=                           0.228927 (Hartree/Particle)
 Thermal correction to Energy=                    0.244032
 Thermal correction to Enthalpy=                  0.244977
 Thermal correction to Gibbs Free Energy=         0.185970
 Sum of electronic and zero-point Energies=           -910.003376
 Sum of electronic and thermal Energies=              -909.988270
 Sum of electronic and thermal Enthalpies=            -909.987326
 Sum of electronic and thermal Free Energies=         -910.046332

                     E (Thermal)             CV                S
                      KCal/Mol        Cal/Mol-Kelvin    Cal/Mol-Kelvin
 Total                  153.133             57.905            124.189
 Electronic               0.000              0.000              0.000
 Translational            0.889              2.981             42.378
 Rotational               0.889              2.981             32.845
 Vibrational            151.355             51.944             48.966
 Vibration     1          0.593              1.984              5.881
 Vibration     2          0.595              1.980              5.108
 Vibration     3          0.600              1.964              3.935
 Vibration     4          0.604              1.948              3.429
 Vibration     5          0.610              1.928              3.014
 Vibration     6          0.618              1.902              2.667
 Vibration     7          0.625              1.880              2.437
 Vibration     8          0.634              1.853              2.225
 Vibration     9          0.647              1.811              1.961
 Vibration    10          0.665              1.756              1.704
 Vibration    11          0.667              1.751              1.682
 Vibration    12          0.687              1.690              1.467
 Vibration    13          0.700              1.653              1.358
 Vibration    14          0.721              1.593              1.207
 Vibration    15          0.728              1.574              1.162
 Vibration    16          0.768              1.464              0.952
 Vibration    17          0.777              1.442              0.916
 Vibration    18          0.810              1.357              0.791
 Vibration    19          0.850              1.263              0.673
 Vibration    20          0.889              1.175              0.579
 Vibration    21          0.913              1.124              0.530
 Vibration    22          0.923              1.102              0.510
 Vibration    23          0.963              1.021              0.441
 Vibration    24          0.965              1.018              0.439

                           ! Non-Optimized Parameters !
 Normal termination of Gaussian 16 at Thu Oct 24 14:44:55 2024.
