 Gaussian 16, Revision C.01,
 Gaussian 16:  EM64L-G16RevC.01  3-Jul-2019

 ------------------------------------------------------
 # PBE1PBE/aug-cc-pVDZ opt freq EmpiricalDispersion=GD3
 ------------------------------------------------------

 ----
 blah
 ----
 Symbolic Z-matrix:
 Charge =  0 Multiplicity = 1

 SCF Done:  E(RPBE1PBE) =  -910.202428305     A.U. after   14 cycles
 SCF Done:  E(RPBE1PBE) =  -910.212081247     A.U. after   12 cycles
 SCF Done:  E(RPBE1PBE) =  -910.213567190     A.U. after   12 cycles
 SCF Done:  E(RPBE1PBE) =  -910.213949977     A.U. after   13 cycles
 SCF Done:  E(RPBE1PBE) =  -910.214249449     A.U. after   12 cycles
 SCF Done:  E(RPBE1PBE) =  -910.214425447     A.U. after   12 cycles
 SCF Done:  E(RPBE1PBE) =  -910.214503587     A.U. after   12 cycles
 SCF Done:  E(RPBE1PBE) =  -910.214571392     A.U. after   11 cycles
 SCF Done:  E(RPBE1PBE) =  -910.214657937     A.U. after   12 cycles
 SCF Done:  E(RPBE1PBE) =  -910.214681647     A.U. after   11 cycles
 SCF Done:  E(RPBE1PBE) =  -910.215263391     A.U. after   12 cycles
 SCF Done:  E(RPBE1PBE) =  -910.215377153     A.U. after   11 cycles
 SCF Done:  E(RPBE1PBE) =  -910.215602299     A.U. after   11 cycles
 SCF Done:  E(RPBE1PBE) =  -910.215783052     A.U. after   11 cycles
 SCF Done:  E(RPBE1PBE) =  -910.215828226     A.U. after   11 cycles
 SCF Done:  E(RPBE1PBE) =  -910.215837467     A.U. after   10 cycles
 SCF Done:  E(RPBE1PBE) =  -910.215836482     A.U. after   11 cycles
 SCF Done:  E(RPBE1PBE) =  -910.215844269     A.U. after   10 cycles
 SCF Done:  E(RPBE1PBE) =  -910.215844802     A.U. after    9 cycles
 Optimization completed.
    -- Stationary point found.
 Normal termination of Gaussian 16 at Thu Oct 17 09:13:21 2024.

 ----------------------------------------------------------------------
 #N Geom=AllCheck Guess=TCheck SCRF=Check GenChk RPBE1PBE/Aug-CC-pVDZ F
 req
 ----------------------------------------------------------------------

 Structure from the checkpoint file:  "/scr/Gau-27712.chk"
 ----
 blah
 ----
 Charge =  0 Multiplicity = 1

                         Standard orientation:
 ---------------------------------------------------------------------
 Center     Atomic      Atomic             Coordinates (Angstroms)
 Number     Number       Type             X           Y           Z
 ---------------------------------------------------------------------
      1          6           0       -2.246044   -0.052873    0.791976
      2          6           0       -1.255133   -1.224639    0.722016
      3          6           0       -0.392741   -0.873478   -0.501784
      4          8           0       -1.941405   -2.419697    0.444582
      5          1           0       -0.634956   -1.325815    1.627578
      6          8           0       -1.106163    0.104540   -1.244281
      7          1           0       -0.219295   -1.773617   -1.099900
      8          7           0        0.923656   -0.344567   -0.176740
      9          6           0       -2.392512    0.328976   -0.676145
     10          1           0       -1.825525    0.792735    1.354479
     11          8           0       -3.506326   -0.431462    1.314122
     12          6           0       -2.776282    1.774779   -0.917195
     13          1           0       -3.143002   -0.335203   -1.137846
     14          8           0       -1.810220    2.671580   -0.401924
     15          1           0       -3.721272    1.979098   -0.396639
     16          1           0       -2.938327    1.940678   -1.993840
     17          1           0       -3.518735   -0.268164    2.261411
     18          1           0       -2.824641   -2.327648    0.828881
     19          1           0       -1.028892    2.592010   -0.959467
     20          6           0        1.051528    0.867564    0.456396
     21          6           0        2.241911    1.415638    0.778121
     22          6           0        3.468414    0.713456    0.445263
     23          7           0        3.243667   -0.504581   -0.206948
     24          6           0        2.044471   -1.090354   -0.546617
     25          1           0        0.113497    1.379488    0.664371
     26          1           0        2.311060    2.377850    1.276027
     27          1           0        4.066663   -1.035404   -0.465916
     28          8           0        4.603608    1.088294    0.677583
     29          8           0        1.976816   -2.164053   -1.113269
 ---------------------------------------------------------------------

 SCF Done:  E(RPBE1PBE) =  -910.215844802     A.U. after    1 cycles

 The electronic state is 1-A.
 Alpha  occ. eigenvalues --  -19.27845 -19.26746 -19.25216 -19.24685 -19.21554
 Alpha  occ. eigenvalues --  -19.20766 -14.48046 -14.45923 -10.39344 -10.35823
 Alpha  occ. eigenvalues --  -10.34542 -10.32006 -10.31980 -10.31350 -10.30965
 Alpha  occ. eigenvalues --  -10.30179 -10.26016  -1.13720  -1.12086  -1.10678
 Alpha  occ. eigenvalues --   -1.08620  -1.08240  -1.07522  -1.02364  -0.97100
 Alpha  occ. eigenvalues --   -0.84512  -0.83036  -0.80591  -0.73455  -0.72494
 Alpha  occ. eigenvalues --   -0.68746  -0.66041  -0.64110  -0.60620  -0.59710
 Alpha  occ. eigenvalues --   -0.58388  -0.56263  -0.55585  -0.53874  -0.52477
 Alpha  occ. eigenvalues --   -0.51339  -0.50510  -0.50174  -0.48223  -0.47790
 Alpha  occ. eigenvalues --   -0.47471  -0.45315  -0.44490  -0.44345  -0.42894
 Alpha  occ. eigenvalues --   -0.42477  -0.41383  -0.39526  -0.38948  -0.38368
 Alpha  occ. eigenvalues --   -0.37222  -0.34110  -0.32819  -0.31871  -0.31243
 Alpha  occ. eigenvalues --   -0.30962  -0.30671  -0.28703  -0.26844
 Alpha virt. eigenvalues --   -0.05382  -0.02866  -0.00860  -0.00159  -0.00063
 Alpha virt. eigenvalues --    0.00749   0.01811   0.02157   0.02261   0.03203
 Alpha virt. eigenvalues --    0.03336   0.04059   0.04799   0.05193   0.05815

 Mulliken charges:
               1
     1  C    0.561200
     2  C    1.348351
     3  C    0.719345
     4  O   -0.670273
     5  H   -0.417418
     6  O   -0.862879
     7  H   -0.483274
     8  N   -0.150920
     9  C    0.964699
    10  H   -0.550850
    11  O   -0.634597
    12  C    1.087177
    13  H   -0.534002
    14  O   -0.547746
    15  H   -0.269165
    16  H   -0.207159
    17  H    0.149099
    18  H    0.164540
    19  H    0.212637
    20  C    0.737413
    21  C    1.383275
    22  C    0.333249
    23  N   -0.141085
    24  C    0.639167
    25  H   -0.798978
    26  H   -0.642825
    27  H   -0.119696
    28  O   -0.658868
    29  O   -0.610416
 Sum of Mulliken charges =  -0.00000

 Dipole moment (field-independent basis, Debye):
    X=             -5.2368    Y=              1.4393    Z=              2.0120  Tot=              5.7917
 Quadrupole moment (field-independent basis, Debye-Ang):
   XX=           -110.8546   YY=           -111.5677   ZZ=            -93.0999
   XY=             -4.2826   XZ=             -7.1108   YZ=             -5.8475

  Exact polarizability:     184.896       8.738     140.242       5.570      11.421     110.424
 Approx polarizability:     240.824      20.078     204.134      10.901      26.715     166.969

                      1                      2                      3
                      A                      A                      A
 Frequencies --     27.1907                44.3671                55.4874
 Red. masses --      5.5975                 7.6889                 7.2827
 Frc consts  --      0.0024                 0.0089                 0.0132
 IR Inten    --      1.4451                 0.6620                 0.1144

                      4                      5                      6
                      A                      A                      A
 Frequencies --     97.8088               120.0087               152.0155
 Red. masses --      6.6774                 4.6526                 5.9384
 Frc consts  --      0.0376                 0.0395                 0.0809
 IR Inten    --      9.1270                10.6806                 0.0957

                      7                      8                      9
                      A                      A                      A
 Frequencies --    159.0356               181.3353               232.7387
 Red. masses --      9.3562                 7.0729                 3.4195
 Frc consts  --      0.1394                 0.1370                 0.1091
 IR Inten    --      3.1401                 3.1746                 4.4406

                     10                     11                     12
                      A                      A                      A
 Frequencies --    246.2064               253.4703               275.6046
 Red. masses --      2.3260                 4.6127                 1.7850
 Frc consts  --      0.0831                 0.1746                 0.0799
 IR Inten    --      0.9680                 5.4930                20.1679

                     13                     14                     15
                      A                      A                      A
 Frequencies --    298.9520               316.1105               348.3088
 Red. masses --      3.7886                 6.4131                 3.6788
 Frc consts  --      0.1995                 0.3776                 0.2630
 IR Inten    --     29.4019                10.0578                15.4702

                     16                     17                     18
                      A                      A                      A
 Frequencies --    380.9480               407.8141               445.4607
 Red. masses --      1.6170                10.7430                 1.8375
 Frc consts  --      0.1383                 1.0527                 0.2148
 IR Inten    --     91.2208                27.5918                81.5162

                     19                     20                     21
                      A                      A                      A
 Frequencies --    469.3198               497.3667               544.6227
 Red. masses --      3.5520                 1.1757                 6.0321
 Frc consts  --      0.4610                 0.1714                 1.0542
 IR Inten    --      4.1595               134.9582                16.8539

                     22                     23                     24
                      A                      A                      A
 Frequencies --    564.5710               573.9454               626.3728
 Red. masses --      6.5055                 6.1699                 6.1630
 Frc consts  --      1.2217                 1.1975                 1.4247
 IR Inten    --     38.2063                 8.8694                 8.9673

                     25                     26                     27
                      A                      A                      A
 Frequencies --    653.3368               699.9443               727.3088
 Red. masses --      4.8647                 1.2126                 4.1037
 Frc consts  --      1.2234                 0.3500                 1.2790
 IR Inten    --      8.3539                46.7796                16.3272

                     28                     29                     30
                      A                      A                      A
 Frequencies --    728.7806               762.1010               777.8096
 Red. masses --      2.3876                 5.3460                 7.2529
 Frc consts  --      0.7471                 1.8294                 2.5853
 IR Inten    --      6.7859                 6.7461                34.4586

                     31                     32                     33
                      A                      A                      A
 Frequencies --    788.3320               829.2070               862.4198
 Red. masses --      8.1633                 2.3179                 2.7229
 Frc consts  --      2.9891                 0.9390                 1.1932
 IR Inten    --      5.7807                46.2995                 5.4580

                     34                     35                     36
                      A                      A                      A
 Frequencies --    886.0124               909.0381               970.2703
 Red. masses --      3.9363                 2.4011                 2.6411
 Frc consts  --      1.8206                 1.1690                 1.4650
 IR Inten    --     11.9153                24.0370                33.9998

                     37                     38                     39
                      A                      A                      A
 Frequencies --    987.2187               995.2583              1012.1656
 Red. masses --      2.4513                 1.3510                 2.2445
 Frc consts  --      1.4076                 0.7884                 1.3548
 IR Inten    --      3.9124                 1.6469                24.7736

                     40                     41                     42
                      A                      A                      A
 Frequencies --   1060.4609              1075.7412              1097.3472
 Red. masses --      2.7689                 3.6044                 1.8604
 Frc consts  --      1.8346                 2.4575                 1.3199
 IR Inten    --     30.8123               119.4929                58.7716

                     43                     44                     45
                      A                      A                      A
 Frequencies --   1111.5978              1141.6423              1158.3465
 Red. masses --      1.9222                 3.2788                 3.0005
 Frc consts  --      1.3994                 2.5178                 2.3720
 IR Inten    --      7.0329                82.6020                91.2882

                     46                     47                     48
                      A                      A                      A
 Frequencies --   1164.0516              1198.1603              1208.7892
 Red. masses --      3.1405                 1.5774                 1.2419
 Frc consts  --      2.5072                 1.3342                 1.0691
 IR Inten    --    146.5038                33.5487                 4.3102

                     49                     50                     51
                      A                      A                      A
 Frequencies --   1229.2381              1246.6501              1251.0692
 Red. masses --      1.8698                 2.3636                 1.4800
 Frc consts  --      1.6647                 2.1643                 1.3648
 IR Inten    --     57.5656                24.2429                35.3708

                     52                     53                     54
                      A                      A                      A
 Frequencies --   1288.8370              1308.9707              1323.2934
 Red. masses --      1.5454                 1.2740                 1.4062
 Frc consts  --      1.5125                 1.2861                 1.4509
 IR Inten    --    159.2572                 7.2166                 2.0148

                     55                     56                     57
                      A                      A                      A
 Frequencies --   1341.1676              1365.6935              1373.5180
 Red. masses --      1.3332                 1.4482                 1.4453
 Frc consts  --      1.4129                 1.5914                 1.6064
 IR Inten    --      9.2737                20.2012                 7.9564

                     58                     59                     60
                      A                      A                      A
 Frequencies --   1380.5419              1390.1962              1406.3637
 Red. masses --      1.3712                 1.4740                 2.6868
 Frc consts  --      1.5398                 1.6784                 3.1310
 IR Inten    --     12.8481                68.7729                68.1231

                     61                     62                     63
                      A                      A                      A
 Frequencies --   1409.5890              1418.2866              1426.5310
 Red. masses --      1.3726                 2.2397                 1.8103
 Frc consts  --      1.6068                 2.6544                 2.1705
 IR Inten    --     15.1967                60.5188                15.8163

                     64                     65                     66
                      A                      A                      A
 Frequencies --   1450.0628              1474.3508              1498.7318
 Red. masses --      1.7121                 1.0816                 3.9153
 Frc consts  --      2.1211                 1.3852                 5.1816
 IR Inten    --      3.1321                 2.8837               146.6385

                     67                     68                     69
                      A                      A                      A
 Frequencies --   1699.7993              1798.8265              1809.8985
 Red. masses --      6.6208                 8.3666                11.1453
 Frc consts  --     11.2709                15.9506                21.5106
 IR Inten    --     89.3915               937.9031               445.1167

                     70                     71                     72
                      A                      A                      A
 Frequencies --   3040.1034              3043.9776              3057.6090
 Red. masses --      1.0791                 1.0860                 1.0703
 Frc consts  --      5.8760                 5.9285                 5.8957
 IR Inten    --     13.2504                29.9357                58.2827

                     73                     74                     75
                      A                      A                      A
 Frequencies --   3086.1517              3127.7400              3151.9426
 Red. masses --      1.0867                 1.1019                 1.0875
 Frc consts  --      6.0983                 6.3514                 6.3653
 IR Inten    --     31.8539                13.1906                 5.2252

                     76                     77                     78
                      A                      A                      A
 Frequencies --   3229.8817              3271.8186              3629.3796
 Red. masses --      1.0922                 1.0968                 1.0777
 Frc consts  --      6.7130                 6.9178                 8.3639
 IR Inten    --      8.9284                 1.1854                78.5828

                     79                     80                     81
                      A                      A                      A
 Frequencies --   3774.3689              3855.0930              3884.2561
 Red. masses --      1.0654                 1.0661                 1.0670
 Frc consts  --      8.9424                 9.3354                 9.4849
 IR Inten    --     86.8132                36.1220                66.8586

 - Thermochemistry -
 -------------------
 Temperature   298.150 Kelvin.  Pressure   1.00000 Atm.
 Atom     1 has atomic number  6 and mass  12.00000

 Molecular mass:   244.06954 amu.
 Principal axes and moments of inertia in atomic units:
                           1         2         3
     Eigenvalues --  2209.885565836.258286941.46340
           X            0.99998  -0.00600  -0.00043
           Y            0.00600   0.99990  -0.01270
           Z            0.00051   0.01269   0.99992
 This molecule is an asymmetric top.
 Rotational symmetry number  1.
 Warning -- assumption of classical behavior for rotation
           may cause significant error
 Rotational temperatures (Kelvin)      0.03919     0.01484     0.01248
 Rotational constants (GHZ):           0.81667     0.30923     0.25999
 Zero-point vibrational energy     599139.7 (Joules/Mol)
                                  143.19783 (Kcal/Mol)
 Warning -- explicit consideration of  23 degrees of freedom as
           vibrations may cause significant error
 Vibrational temperatures:     39.12    63.83    79.83   140.73   172.67
          (Kelvin)            218.72   228.82   260.90   334.86   354.24
                              364.69   396.53   430.13   454.81   501.14
                              548.10   586.75   640.92   675.25   715.60
                              783.59   812.29   825.78   901.21   940.01
                             1007.06  1046.44  1048.55  1096.49  1119.09
                             1134.23  1193.04  1240.83  1274.77  1307.90
                             1396.00  1420.39  1431.95  1456.28  1525.77
                             1547.75  1578.84  1599.34  1642.57  1666.60
                             1674.81  1723.89  1739.18  1768.60  1793.65
                             1800.01  1854.35  1883.32  1903.92  1929.64
                             1964.93  1976.19  1986.29  2000.18  2023.44
                             2028.08  2040.60  2052.46  2086.32  2121.26
                             2156.34  2445.63  2588.11  2604.04  4374.03
                             4379.60  4399.22  4440.28  4500.12  4534.94
                             4647.08  4707.42  5221.87  5430.48  5546.62
                             5588.58

 Zero-point correction=                           0.228200 (Hartree/Particle)
 Thermal correction to Energy=                    0.243534
 Thermal correction to Enthalpy=                  0.244478
 Thermal correction to Gibbs Free Energy=         0.184689
 Sum of electronic and zero-point Energies=           -909.987645
 Sum of electronic and thermal Energies=              -909.972311
 Sum of electronic and thermal Enthalpies=            -909.971366
 Sum of electronic and thermal Free Energies=         -910.031155

                     E (Thermal)             CV                S
                      KCal/Mol        Cal/Mol-Kelvin    Cal/Mol-Kelvin
 Total                  152.820             58.274            125.836
 Electronic               0.000              0.000              0.000
 Translational            0.889              2.981             42.378
 Rotational               0.889              2.981             32.859
 Vibrational            151.043             52.313             50.599
 Vibration     1          0.593              1.984              6.024
 Vibration     2          0.595              1.980              5.054
 Vibration     3          0.596              1.975              4.612
 Vibration     4          0.603              1.951              3.498
 Vibration     5          0.609              1.933              3.100
 Vibration     6          0.619              1.900              2.647
 Vibration     7          0.621              1.892              2.561
 Vibration     8          0.630              1.865              2.315
 Vibration     9          0.653              1.791              1.858
 Vibration    10          0.661              1.769              1.758
 Vibration    11          0.665              1.757              1.706
 Vibration    12          0.677              1.718              1.561
 Vibration    13          0.692              1.676              1.423
 Vibration    14          0.703              1.643              1.330
 Vibration    15          0.726              1.579              1.174
 Vibration    16          0.751              1.511              1.035
 Vibration    17          0.772              1.453              0.934
 Vibration    18          0.805              1.371              0.810
 Vibration    19          0.826              1.318              0.739
 Vibration    20          0.853              1.256              0.665
 Vibration    21          0.900              1.151              0.555
 Vibration    22          0.920              1.108              0.515
 Vibration    23          0.930              1.088              0.497

 Optimization completed.
    -- Stationary point found.
 Normal termination of Gaussian 16 at Thu Oct 17 09:29:36 2024.
