 Gaussian 16, Revision C.01,
 Gaussian 16:  EM64L-G16RevC.01  3-Jul-2019

 ------------------------------------------------------
 # PBE1PBE/aug-cc-pVDZ opt freq EmpiricalDispersion=GD3
 ------------------------------------------------------

 ----
 blah
 ----
 Symbolic Z-matrix:
 Charge =  0 Multiplicity = 2

 SCF Done:  E(UPBE1PBE) =  -909.499428251     A.U. after   40 cycles
 SCF Done:  E(UPBE1PBE) =  -909.503938010     A.U. after   34 cycles
 SCF Done:  E(UPBE1PBE) =  -909.505237487     A.U. after   37 cycles
 SCF Done:  E(UPBE1PBE) =  -909.506029709     A.U. after   32 cycles
 SCF Done:  E(UPBE1PBE) =  -909.506396353     A.U. after   31 cycles
 SCF Done:  E(UPBE1PBE) =  -909.506776467     A.U. after   30 cycles
 SCF Done:  E(UPBE1PBE) =  -909.508551773     A.U. after   24 cycles
 SCF Done:  E(UPBE1PBE) =  -909.511975018     A.U. after   23 cycles
 SCF Done:  E(UPBE1PBE) =  -909.513492134     A.U. after   19 cycles
 SCF Done:  E(UPBE1PBE) =  -909.513945304     A.U. after   19 cycles
 SCF Done:  E(UPBE1PBE) =  -909.514654573     A.U. after   18 cycles
 SCF Done:  E(UPBE1PBE) =  -909.514724270     A.U. after   18 cycles
 SCF Done:  E(UPBE1PBE) =  -909.514800816     A.U. after   19 cycles
 SCF Done:  E(UPBE1PBE) =  -909.514837402     A.U. after   15 cycles
 SCF Done:  E(UPBE1PBE) =  -909.514845794     A.U. after   17 cycles
 SCF Done:  E(UPBE1PBE) =  -909.514848609     A.U. after   14 cycles
 SCF Done:  E(UPBE1PBE) =  -909.514849980     A.U. after   15 cycles
 SCF Done:  E(UPBE1PBE) =  -909.514850120     A.U. after   14 cycles
 SCF Done:  E(UPBE1PBE) =  -909.514850160     A.U. after   13 cycles
 Optimization completed.
    -- Stationary point found.
 Normal termination of Gaussian 16 at Sun Oct 27 00:34:44 2024.

 ----------------------------------------------------------------------
 #N Geom=AllCheck Guess=TCheck SCRF=Check GenChk UPBE1PBE/Aug-CC-pVDZ F
 req
 ----------------------------------------------------------------------

 Structure from the checkpoint file:  "/scr/Gau-65601.chk"
 ----
 blah
 ----
 Charge =  0 Multiplicity = 2

                         Standard orientation:
 ---------------------------------------------------------------------
 Center     Atomic      Atomic             Coordinates (Angstroms)
 Number     Number       Type             X           Y           Z
 ---------------------------------------------------------------------
      1          6           0        2.304495   -0.002030   -0.706701
      2          6           0        1.379834   -1.229266   -0.700974
      3          6           0        0.387210   -0.910477    0.429477
      4          8           0        2.102028   -2.377787   -0.334640
      5          1           0        0.854679   -1.382813   -1.657981
      6          8           0        0.960575    0.129552    1.207188
      7          1           0        0.222869   -1.805691    1.038692
      8          7           0       -0.925759   -0.490458   -0.029828
      9          6           0        2.274763    0.437716    0.752719
     10          1           0        1.898875    0.799835   -1.340108
     11          8           0        3.631647   -0.319895   -1.081664
     12          6           0        2.512074    1.919826    0.962511
     13          1           0        3.026018   -0.144769    1.312504
     14          8           0        1.539417    2.705588    0.300342
     15          1           0        3.489418    2.185000    0.538058
     16          1           0        2.537368    2.141680    2.040939
     17          1           0        3.737783   -0.178195   -2.026611
     18          1           0        3.014892   -2.234991   -0.622738
     19          1           0        0.705131    2.566893    0.761640
     20          6           0       -1.094307    0.680000   -0.728191
     21          6           0       -2.305842    1.234500   -0.959803
     22          6           0       -3.506038    0.624748   -0.379523
     23          7           0       -3.255345   -0.737526   -0.112986
     24          6           0       -2.060484   -1.162831    0.443387
     25          1           0       -0.177675    1.173533   -1.046262
     26          1           0       -2.416196    2.165243   -1.510937
     27          8           0       -4.582199    1.156734   -0.230837
     28          8           0       -2.023424   -2.074562    1.243997
 ---------------------------------------------------------------------

 SCF Done:  E(UPBE1PBE) =  -909.514850160     A.U. after    1 cycles

 The electronic state is 2-A.
 Alpha  occ. eigenvalues --  -19.28268 -19.27148 -19.25434 -19.25183 -19.24169
 Alpha  occ. eigenvalues --  -19.22708 -14.48796 -14.48428 -10.40210 -10.37001
 Alpha  occ. eigenvalues --  -10.35234 -10.33231 -10.32484 -10.31954 -10.31352
 Alpha  occ. eigenvalues --  -10.30444 -10.27582  -1.14583  -1.13152  -1.11189
 Alpha  occ. eigenvalues --   -1.10191  -1.08580  -1.07954  -1.03750  -0.97475
 Alpha  occ. eigenvalues --   -0.85119  -0.83477  -0.81221  -0.73996  -0.71780
 Alpha  occ. eigenvalues --   -0.69050  -0.66305  -0.64298  -0.60915  -0.59583
 Alpha  occ. eigenvalues --   -0.58611  -0.56410  -0.55073  -0.53506  -0.51921
 Alpha  occ. eigenvalues --   -0.51542  -0.50933  -0.50493  -0.48904  -0.48463
 Alpha  occ. eigenvalues --   -0.47514  -0.46423  -0.45539  -0.43658  -0.43239
 Alpha  occ. eigenvalues --   -0.41868  -0.40740  -0.39339  -0.39051  -0.37783
 Alpha  occ. eigenvalues --   -0.36988  -0.34896  -0.34459  -0.33043  -0.32386
 Alpha  occ. eigenvalues --   -0.31630  -0.31280  -0.29839  -0.28031
 Alpha virt. eigenvalues --   -0.06605  -0.03235  -0.01122  -0.00871  -0.00373
 Alpha virt. eigenvalues --    0.00657   0.01703   0.01909   0.02630   0.03066
 Alpha virt. eigenvalues --    0.03082   0.04424   0.04577   0.05070   0.05803

  Beta  occ. eigenvalues --  -19.28268 -19.27147 -19.25434 -19.25183 -19.23804
  Beta  occ. eigenvalues --  -19.22596 -14.48786 -14.46592 -10.40331 -10.37073
  Beta  occ. eigenvalues --  -10.35226 -10.33181 -10.32483 -10.31952 -10.31351
  Beta  occ. eigenvalues --  -10.30444 -10.27479  -1.14244  -1.12661  -1.11126
  Beta  occ. eigenvalues --   -1.09772  -1.08574  -1.07949  -1.03294  -0.94351
  Beta  occ. eigenvalues --   -0.84596  -0.83456  -0.81110  -0.73868  -0.71093
  Beta  occ. eigenvalues --   -0.68691  -0.65996  -0.64133  -0.60794  -0.59122
  Beta  occ. eigenvalues --   -0.58528  -0.56368  -0.55031  -0.53015  -0.51845
  Beta  occ. eigenvalues --   -0.51332  -0.50355  -0.50074  -0.48494  -0.47981
  Beta  occ. eigenvalues --   -0.46820  -0.46135  -0.45432  -0.43523  -0.42823
  Beta  occ. eigenvalues --   -0.41831  -0.40114  -0.39315  -0.38860  -0.37626
  Beta  occ. eigenvalues --   -0.34726  -0.34413  -0.32948  -0.32165  -0.31623
  Beta  occ. eigenvalues --   -0.30798  -0.29455  -0.27724
  Beta virt. eigenvalues --   -0.17493  -0.05583  -0.03229  -0.01025  -0.00516
  Beta virt. eigenvalues --   -0.00365   0.00698   0.01720   0.01934   0.02709
  Beta virt. eigenvalues --    0.03074   0.03121   0.04485   0.04683   0.05101

 Mulliken charges and spin densities:
               1          2
     1  C    0.609497   0.000056
     2  C    1.294689   0.002970
     3  C    0.755321  -0.000461
     4  O   -0.662758   0.000128
     5  H   -0.415347  -0.000430
     6  O   -0.885097   0.000572
     7  H   -0.445494  -0.000987
     8  N   -0.074268   0.010760
     9  C    0.848731   0.001045
    10  H   -0.486853   0.000757
    11  O   -0.632423   0.000131
    12  C    1.101563  -0.000355
    13  H   -0.499238   0.000092
    14  O   -0.550372   0.000171
    15  H   -0.270302  -0.000002
    16  H   -0.203242  -0.000018
    17  H    0.146821   0.000009
    18  H    0.163140   0.000031
    19  H    0.216025   0.000223
    20  C    0.701279   0.053586
    21  C    1.144491   0.051904
    22  C    0.495699  -0.118563
    23  N   -0.505309   0.951508
    24  C    0.700239  -0.123783
    25  H   -0.805592  -0.007279
    26  H   -0.587675   0.004917
    27  O   -0.589781   0.047815
    28  O   -0.563743   0.125202
 Sum of Mulliken charges =  -0.00000   1.00000

 Dipole moment (field-independent basis, Debye):
    X=              6.8399    Y=              1.9990    Z=             -3.1996  Tot=              7.8114
 Quadrupole moment (field-independent basis, Debye-Ang):
   XX=           -116.8088   YY=           -110.2089   ZZ=            -91.9241
   XY=             -0.2311   XZ=             -1.8502   YZ=              4.5098

  Exact polarizability:     188.859     -11.765     140.421       2.861     -11.596     111.380
 Approx polarizability:     249.862     -25.880     208.651       4.319     -28.577     172.086

                      1                      2                      3
                      A                      A                      A
 Frequencies --     29.4258                36.5501                52.6393
 Red. masses --      6.4939                 8.1039                 7.1162
 Frc consts  --      0.0033                 0.0064                 0.0116
 IR Inten    --      3.4006                 0.8247                 0.1267

                      4                      5                      6
                      A                      A                      A
 Frequencies --     89.2759               122.0546               125.1037
 Red. masses --      6.3269                 5.2589                 5.4980
 Frc consts  --      0.0297                 0.0462                 0.0507
 IR Inten    --      9.6574                 1.7096                 9.6364

                      7                      8                      9
                      A                      A                      A
 Frequencies --    155.8457               172.6968               228.0668
 Red. masses --     12.4410                 6.6677                 4.4153
 Frc consts  --      0.1780                 0.1172                 0.1353
 IR Inten    --      1.3533                 4.9291                 4.4835

                     10                     11                     12
                      A                      A                      A
 Frequencies --    241.0197               249.6711               275.8431
 Red. masses --      2.4686                 3.3131                 1.7927
 Frc consts  --      0.0845                 0.1217                 0.0804
 IR Inten    --      0.6015                 6.6969                18.0710

                     13                     14                     15
                      A                      A                      A
 Frequencies --    294.6940               313.0345               344.9871
 Red. masses --      3.7965                 6.0229                 3.8336
 Frc consts  --      0.1943                 0.3477                 0.2688
 IR Inten    --     24.6321                 9.8225                17.5885

                     16                     17                     18
                      A                      A                      A
 Frequencies --    373.5090               412.2539               435.7924
 Red. masses --      2.4649                 3.2365                 1.9599
 Frc consts  --      0.2026                 0.3241                 0.2193
 IR Inten    --     29.2632                42.1732                74.8644

                     19                     20                     21
                      A                      A                      A
 Frequencies --    444.8881               483.3165               493.8278
 Red. masses --     10.0149                 2.7851                 2.9094
 Frc consts  --      1.1679                 0.3833                 0.4180
 IR Inten    --     18.6458                52.7858                63.0188

                     22                     23                     24
                      A                      A                      A
 Frequencies --    508.0646               559.0724               580.4638
 Red. masses --      1.6263                 5.9310                 6.2993
 Frc consts  --      0.2473                 1.0922                 1.2505
 IR Inten    --     59.7903                 9.0268                18.7914

                     25                     26                     27
                      A                      A                      A
 Frequencies --    654.8702               686.1594               714.5550
 Red. masses --      5.0125                 2.9554                 4.8487
 Frc consts  --      1.2665                 0.8198                 1.4586
 IR Inten    --      8.7430                 5.7303                28.9535

                     28                     29                     30
                      A                      A                      A
 Frequencies --    735.7093               762.0637               787.9040
 Red. masses --      7.6455                 4.4919                 8.4899
 Frc consts  --      2.4382                 1.5370                 3.1053
 IR Inten    --     25.8821                 3.6572                11.8260

                     31                     32                     33
                      A                      A                      A
 Frequencies --    797.4088               842.5649               872.3420
 Red. masses --      2.2383                 5.4929                 2.6754
 Frc consts  --      0.8386                 2.2975                 1.1995
 IR Inten    --     25.5180                41.9184                 2.3370

                     34                     35                     36
                      A                      A                      A
 Frequencies --    907.4482               939.3879               966.8790
 Red. masses --      2.4321                 2.8584                 1.8064
 Frc consts  --      1.1800                 1.4861                 0.9950
 IR Inten    --     20.6726                23.7393                34.0323

                     37                     38                     39
                      A                      A                      A
 Frequencies --    972.1040              1004.0402              1056.8266
 Red. masses --      2.2511                 2.5170                 3.3271
 Frc consts  --      1.2533                 1.4950                 2.1894
 IR Inten    --     23.6038                29.2013                30.1159

                     40                     41                     42
                      A                      A                      A
 Frequencies --   1062.3785              1082.0852              1097.2914
 Red. masses --      2.5295                 2.6604                 1.9941
 Frc consts  --      1.6821                 1.8354                 1.4146
 IR Inten    --     35.3628                67.8500                62.1817

                     43                     44                     45
                      A                      A                      A
 Frequencies --   1138.7393              1155.9101              1161.4135
 Red. masses --      3.7563                 3.0404                 3.4366
 Frc consts  --      2.8698                 2.3935                 2.7312
 IR Inten    --     87.7652                91.9669               137.0508

                     46                     47                     48
                      A                      A                      A
 Frequencies --   1176.8642              1194.2180              1206.0879
 Red. masses --      3.1682                 1.7843                 1.3369
 Frc consts  --      2.5853                 1.4993                 1.1458
 IR Inten    --     20.7526                19.2547                11.1186

                     49                     50                     51
                      A                      A                      A
 Frequencies --   1217.0280              1247.9306              1270.6572
 Red. masses --      1.3906                 1.4000                 4.6990
 Frc consts  --      1.2136                 1.2846                 4.4701
 IR Inten    --     34.3281                17.7711               162.4687

                     52                     53                     54
                      A                      A                      A
 Frequencies --   1286.3147              1310.3018              1322.9202
 Red. masses --      1.6260                 1.3200                 1.4018
 Frc consts  --      1.5851                 1.3352                 1.4455
 IR Inten    --    141.3697                10.9011                 6.0615

                     55                     56                     57
                      A                      A                      A
 Frequencies --   1340.4317              1364.6279              1373.3129
 Red. masses --      1.3652                 1.4646                 1.3780
 Frc consts  --      1.4453                 1.6069                 1.5313
 IR Inten    --      9.7190                22.4634                 4.4739

                     58                     59                     60
                      A                      A                      A
 Frequencies --   1379.1586              1389.9482              1409.9786
 Red. masses --      1.3904                 1.4175                 1.4441
 Frc consts  --      1.5581                 1.6135                 1.6915
 IR Inten    --     27.1945                83.6992                18.5999

                     61                     62                     63
                      A                      A                      A
 Frequencies --   1411.6590              1448.6613              1461.4842
 Red. masses --      1.7072                 1.7166                 2.1970
 Frc consts  --      2.0045                 2.1225                 2.7648
 IR Inten    --      3.2761                 2.8132                36.0504

                     64                     65                     66
                      A                      A                      A
 Frequencies --   1474.7795              1675.9631              1695.3677
 Red. masses --      1.0816                 6.5179                11.5636
 Frc consts  --      1.3860                10.7867                19.5827
 IR Inten    --      4.3100               204.9708               469.0371

                     67                     68                     69
                      A                      A                      A
 Frequencies --   1756.4623              3041.1697              3043.4311
 Red. masses --     12.9109                 1.0842                 1.0802
 Frc consts  --     23.4685                 5.9080                 5.8950
 IR Inten    --    525.3718                29.1978                11.5532

                     70                     71                     72
                      A                      A                      A
 Frequencies --   3058.9706              3083.3476              3128.4706
 Red. masses --      1.0709                 1.0867                 1.1022
 Frc consts  --      5.9042                 6.0872                 6.3556
 IR Inten    --     54.7446                34.1847                13.1026

                     73                     74                     75
                      A                      A                      A
 Frequencies --   3144.1376              3231.4235              3256.0312
 Red. masses --      1.0871                 1.0904                 1.0976
 Frc consts  --      6.3316                 6.7087                 6.8563
 IR Inten    --      4.2580                 5.4493                 2.1838

                     76                     77                     78
                      A                      A                      A
 Frequencies --   3770.4466              3852.2785              3883.5586
 Red. masses --      1.0654                 1.0661                 1.0670
 Frc consts  --      8.9238                 9.3213                 9.4816
 IR Inten    --     92.5547                37.3926                69.6190

 - Thermochemistry -
 -------------------
 Temperature   298.150 Kelvin.  Pressure   1.00000 Atm.
 Atom     1 has atomic number  6 and mass  12.00000

 Molecular mass:   243.06171 amu.
 Principal axes and moments of inertia in atomic units:
                           1         2         3
     Eigenvalues --  2171.150845730.364976866.50808
           X            1.00000   0.00183   0.00154
           Y           -0.00185   0.99993   0.01202
           Z           -0.00152  -0.01203   0.99993
 This molecule is an asymmetric top.
 Rotational symmetry number  1.
 Warning -- assumption of classical behavior for rotation
           may cause significant error
 Rotational temperatures (Kelvin)      0.03989     0.01511     0.01261
 Rotational constants (GHZ):           0.83124     0.31494     0.26283
 Zero-point vibrational energy     558223.0 (Joules/Mol)
                                  133.41850 (Kcal/Mol)
 Warning -- explicit consideration of  24 degrees of freedom as
           vibrations may cause significant error
 Vibrational temperatures:     42.34    52.59    75.74   128.45   175.61
          (Kelvin)            180.00   224.23   248.47   328.14   346.77
                              359.22   396.88   424.00   450.39   496.36
                              537.40   593.14   627.01   640.09   695.38
                              710.51   730.99   804.38   835.16   942.21
                              987.23  1028.09  1058.52  1096.44  1133.62
                             1147.29  1212.26  1255.11  1305.62  1351.57
                             1391.12  1398.64  1444.59  1520.54  1528.53
                             1556.88  1578.76  1638.39  1663.10  1671.01
                             1693.25  1718.21  1735.29  1751.03  1795.49
                             1828.19  1850.72  1885.23  1903.39  1928.58
                             1963.40  1975.89  1984.30  1999.83  2028.64
                             2031.06  2084.30  2102.75  2121.88  2411.34
                             2439.26  2527.16  4375.56  4378.82  4401.18
                             4436.25  4501.17  4523.71  4649.30  4684.70
                             5424.83  5542.57  5587.57

 Zero-point correction=                           0.212616 (Hartree/Particle)
 Thermal correction to Energy=                    0.228195
 Thermal correction to Enthalpy=                  0.229139
 Thermal correction to Gibbs Free Energy=         0.167989
 Sum of electronic and zero-point Energies=           -909.302234
 Sum of electronic and thermal Energies=              -909.286655
 Sum of electronic and thermal Enthalpies=            -909.285711
 Sum of electronic and thermal Free Energies=         -909.346861

                     E (Thermal)             CV                S
                      KCal/Mol        Cal/Mol-Kelvin    Cal/Mol-Kelvin
 Total                  143.194             58.494            128.701
 Electronic               0.000              0.000              1.377
 Translational            0.889              2.981             42.365
 Rotational               0.889              2.981             32.813
 Vibrational            141.417             52.533             52.145
 Vibration     1          0.593              1.984              5.868
 Vibration     2          0.594              1.982              5.438
 Vibration     3          0.596              1.977              4.716
 Vibration     4          0.602              1.957              3.676
 Vibration     5          0.610              1.931              3.068
 Vibration     6          0.610              1.928              3.020
 Vibration     7          0.620              1.896              2.600
 Vibration     8          0.626              1.876              2.406
 Vibration     9          0.651              1.798              1.894
 Vibration    10          0.658              1.778              1.795
 Vibration    11          0.662              1.763              1.733
 Vibration    12          0.677              1.718              1.559
 Vibration    13          0.689              1.684              1.447
 Vibration    14          0.701              1.649              1.346
 Vibration    15          0.723              1.585              1.189
 Vibration    16          0.745              1.526              1.065
 Vibration    17          0.776              1.444              0.919
 Vibration    18          0.796              1.392              0.840
 Vibration    19          0.804              1.372              0.811
 Vibration    20          0.839              1.287              0.701
 Vibration    21          0.849              1.264              0.674
 Vibration    22          0.863              1.232              0.638
 Vibration    23          0.915              1.120              0.526
 Vibration    24          0.937              1.074              0.485

                           ! Non-Optimized Parameters !
 Normal termination of Gaussian 16 at Sun Oct 27 01:01:01 2024.
