 Gaussian 16, Revision C.01,
 Gaussian 16:  EM64L-G16RevC.01  3-Jul-2019

 ------------------------------------------------------
 # PBE1PBE/aug-cc-pVDZ opt freq EmpiricalDispersion=GD3
 ------------------------------------------------------

 ----
 blah
 ----
 Symbolic Z-matrix:
 Charge = -1 Multiplicity = 1

 SCF Done:  E(RPBE1PBE) =  -909.642224809     A.U. after   16 cycles
 SCF Done:  E(RPBE1PBE) =  -909.654233867     A.U. after   12 cycles
 SCF Done:  E(RPBE1PBE) =  -909.655899973     A.U. after   12 cycles
 SCF Done:  E(RPBE1PBE) =  -909.656209487     A.U. after   12 cycles
 SCF Done:  E(RPBE1PBE) =  -909.656469954     A.U. after   11 cycles
 SCF Done:  E(RPBE1PBE) =  -909.656540508     A.U. after   12 cycles
 SCF Done:  E(RPBE1PBE) =  -909.656648415     A.U. after   11 cycles
 SCF Done:  E(RPBE1PBE) =  -909.656677033     A.U. after   10 cycles
 SCF Done:  E(RPBE1PBE) =  -909.656682107     A.U. after   10 cycles
 SCF Done:  E(RPBE1PBE) =  -909.656684857     A.U. after   10 cycles
 SCF Done:  E(RPBE1PBE) =  -909.656687361     A.U. after    9 cycles
 SCF Done:  E(RPBE1PBE) =  -909.656688298     A.U. after    9 cycles
 SCF Done:  E(RPBE1PBE) =  -909.656688497     A.U. after    8 cycles
 Optimization completed.
    -- Stationary point found.
 Normal termination of Gaussian 16 at Thu Oct 24 10:48:38 2024.

 ----------------------------------------------------------------------
 #N Geom=AllCheck Guess=TCheck SCRF=Check GenChk RPBE1PBE/Aug-CC-pVDZ F
 req
 ----------------------------------------------------------------------

 Structure from the checkpoint file:  "/scr/Gau-8252.chk"
 ----
 blah
 ----
 Charge = -1 Multiplicity = 1

                         Standard orientation:
 ---------------------------------------------------------------------
 Center     Atomic      Atomic             Coordinates (Angstroms)
 Number     Number       Type             X           Y           Z
 ---------------------------------------------------------------------
      1          6           0       -2.246094   -0.011066    0.774933
      2          6           0       -1.250538   -1.175077    0.785152
      3          6           0       -0.329210   -0.873748   -0.410719
      4          8           0       -1.941302   -2.387698    0.546888
      5          1           0       -0.666507   -1.240097    1.716614
      6          8           0       -1.055389    0.091518   -1.221319
      7          1           0       -0.154499   -1.784122   -0.994344
      8          7           0        0.961881   -0.371087   -0.088255
      9          6           0       -2.354129    0.302758   -0.711780
     10          1           0       -1.839491    0.863555    1.301016
     11          8           0       -3.526281   -0.356515    1.296803
     12          6           0       -2.744554    1.734273   -1.026750
     13          1           0       -3.088372   -0.389464   -1.165460
     14          8           0       -1.801109    2.655309   -0.521294
     15          1           0       -3.711914    1.960282   -0.556326
     16          1           0       -2.857732    1.842867   -2.119474
     17          1           0       -3.514557   -0.203783    2.245425
     18          1           0       -2.835579   -2.256767    0.889643
     19          1           0       -0.934775    2.333096   -0.807013
     20          6           0        1.107237    0.752959    0.682810
     21          6           0        2.324123    1.258999    0.956258
     22          6           0        3.519095    0.587514    0.412510
     23          7           0        3.340210   -0.513301   -0.373085
     24          6           0        2.133905   -1.014187   -0.659315
     25          1           0        0.189808    1.216579    1.047999
     26          1           0        2.445835    2.151304    1.567449
     27          8           0        4.644322    1.040737    0.681355
     28          8           0        1.916526   -2.003012   -1.371776
 ---------------------------------------------------------------------

 SCF Done:  E(RPBE1PBE) =  -909.656688497     A.U. after    1 cycles

 The electronic state is 1-A.
 Alpha  occ. eigenvalues --  -19.18306 -19.14539 -19.14472 -19.14226 -19.02624
 Alpha  occ. eigenvalues --  -19.01565 -14.30883 -14.20487 -10.21413 -10.20805
 Alpha  occ. eigenvalues --  -10.20298 -10.20092 -10.19986 -10.19629 -10.16231
 Alpha  occ. eigenvalues --  -10.15723 -10.09660  -1.02090  -0.99738  -0.97557
 Alpha  occ. eigenvalues --   -0.96583  -0.92252  -0.88178  -0.84690  -0.75380
 Alpha  occ. eigenvalues --   -0.72089  -0.69351  -0.65932  -0.60694  -0.55122
 Alpha  occ. eigenvalues --   -0.53603  -0.51802  -0.49178  -0.47672  -0.46167
 Alpha  occ. eigenvalues --   -0.45089  -0.42605  -0.41488  -0.40370  -0.39304
 Alpha  occ. eigenvalues --   -0.38381  -0.36690  -0.34849  -0.33650  -0.32010
 Alpha  occ. eigenvalues --   -0.31120  -0.30615  -0.30176  -0.28868  -0.28115
 Alpha  occ. eigenvalues --   -0.27778  -0.26919  -0.25804  -0.24039  -0.23043
 Alpha  occ. eigenvalues --   -0.21950  -0.21088  -0.20644  -0.19080  -0.13053
 Alpha  occ. eigenvalues --   -0.11561  -0.10171  -0.09348  -0.09328
 Alpha virt. eigenvalues --    0.05097   0.07543   0.08417   0.09435   0.10417
 Alpha virt. eigenvalues --    0.10608   0.10990   0.11737   0.11857   0.12599
 Alpha virt. eigenvalues --    0.13350   0.13538   0.14987   0.15541   0.15794

 Mulliken charges:
               1
     1  C    0.544787
     2  C    1.252075
     3  C    0.813355
     4  O   -0.671513
     5  H   -0.406855
     6  O   -0.908374
     7  H   -0.475172
     8  N   -0.160371
     9  C    0.762452
    10  H   -0.436675
    11  O   -0.641907
    12  C    1.176743
    13  H   -0.521444
    14  O   -0.591079
    15  H   -0.258924
    16  H   -0.221416
    17  H    0.129571
    18  H    0.140349
    19  H    0.239310
    20  C    0.653069
    21  C    1.104939
    22  C    0.462714
    23  N   -0.521528
    24  C    0.588630
    25  H   -0.862094
    26  H   -0.648510
    27  O   -0.799139
    28  O   -0.742991
 Sum of Mulliken charges =  -1.00000

 Dipole moment (field-independent basis, Debye):
    X=            -16.1958    Y=              2.2310    Z=              3.7666  Tot=             16.7771
 Quadrupole moment (field-independent basis, Debye-Ang):
   XX=           -172.8041   YY=           -125.1167   ZZ=           -101.8126
   XY=              1.6566   XZ=             -3.2817   YZ=             -8.1155

  Exact polarizability:     201.070      12.356     146.449       6.854      15.158     124.991
 Approx polarizability:     261.162      28.362     214.311      14.536      33.869     187.823

                      1                      2                      3
                      A                      A                      A
 Frequencies --     33.8014                38.9331                55.6726
 Red. masses --      7.8878                 6.7506                 7.2559
 Frc consts  --      0.0053                 0.0060                 0.0133
 IR Inten    --      1.8165                 5.7852                 0.4814

                      4                      5                      6
                      A                      A                      A
 Frequencies --     91.9642               121.4052               130.7309
 Red. masses --      6.2797                 4.9418                 5.8710
 Frc consts  --      0.0313                 0.0429                 0.0591
 IR Inten    --      7.4554                 2.7952                 4.6456

                      7                      8                      9
                      A                      A                      A
 Frequencies --    172.2578               191.9161               230.8135
 Red. masses --      7.3479                13.7316                 3.6193
 Frc consts  --      0.1285                 0.2980                 0.1136
 IR Inten    --      2.6810                 0.3069                 5.6250

                     10                     11                     12
                      A                      A                      A
 Frequencies --    239.1302               254.9869               271.5528
 Red. masses --      2.1468                 3.5200                 1.9594
 Frc consts  --      0.0723                 0.1348                 0.0851
 IR Inten    --      1.6397                11.7964                18.7369

                     13                     14                     15
                      A                      A                      A
 Frequencies --    300.6276               319.7859               341.6923
 Red. masses --      5.1001                 6.1933                 3.8782
 Frc consts  --      0.2716                 0.3732                 0.2668
 IR Inten    --     19.0168                11.8237                 7.9957

                     16                     17                     18
                      A                      A                      A
 Frequencies --    401.8117               438.5498               464.1361
 Red. masses --      2.6754                 9.6706                 4.2088
 Frc consts  --      0.2545                 1.0958                 0.5342
 IR Inten    --      3.6765                14.7136                 1.6104

                     19                     20                     21
                      A                      A                      A
 Frequencies --    492.6432               516.3371               539.8344
 Red. masses --      1.1822                 1.2204                 5.5660
 Frc consts  --      0.1691                 0.1917                 0.9557
 IR Inten    --    110.9031               161.1492                25.1632

                     22                     23                     24
                      A                      A                      A
 Frequencies --    570.1543               580.1766               639.6326
 Red. masses --      4.8336                 8.7679                 6.3378
 Frc consts  --      0.9258                 1.7389                 1.5277
 IR Inten    --     18.5862                26.0012                23.8276

                     25                     26                     27
                      A                      A                      A
 Frequencies --    653.6883               713.5544               723.4771
 Red. masses --      4.8665                 5.3688                 1.7682
 Frc consts  --      1.2252                 1.6106                 0.5453
 IR Inten    --      3.5856                19.8132                 6.0478

                     28                     29                     30
                      A                      A                      A
 Frequencies --    757.7431               772.3662               785.8097
 Red. masses --      5.2154                 7.9921                11.4749
 Frc consts  --      1.7643                 2.8090                 4.1748
 IR Inten    --     13.9508                 9.1436                11.6780

                     31                     32                     33
                      A                      A                      A
 Frequencies --    830.0904               865.2952               886.3270
 Red. masses --      3.5738                 2.7677                 4.2953
 Frc consts  --      1.4509                 1.2209                 1.9881
 IR Inten    --     28.5257                12.9092                15.5167

                     34                     35                     36
                      A                      A                      A
 Frequencies --    905.0777               946.3259               957.9166
 Red. masses --      3.1214                 1.2944                 3.2829
 Frc consts  --      1.5065                 0.6830                 1.7749
 IR Inten    --     20.4314                 3.6878                73.4543

                     37                     38                     39
                      A                      A                      A
 Frequencies --    964.7316               993.6155              1033.0217
 Red. masses --      4.6229                 2.1009                 3.2842
 Frc consts  --      2.5350                 1.2221                 2.0649
 IR Inten    --    100.4631                55.7529                54.0132

                     40                     41                     42
                      A                      A                      A
 Frequencies --   1070.1947              1086.0095              1101.8721
 Red. masses --      2.3746                 1.7649                 1.8435
 Frc consts  --      1.6024                 1.2264                 1.3187
 IR Inten    --     60.1554                 1.8087                61.3567

                     43                     44                     45
                      A                      A                      A
 Frequencies --   1119.7342              1145.1424              1159.3794
 Red. masses --      3.4946                 2.4811                 3.6789
 Frc consts  --      2.5815                 1.9170                 2.9135
 IR Inten    --     26.9469                53.8307               231.9886

                     46                     47                     48
                      A                      A                      A
 Frequencies --   1196.5248              1209.1659              1217.8466
 Red. masses --      1.4340                 1.3523                 1.3427
 Frc consts  --      1.2096                 1.1649                 1.1733
 IR Inten    --     22.5130                13.6676                35.7716

                     49                     50                     51
                      A                      A                      A
 Frequencies --   1241.5592              1290.5432              1296.0737
 Red. masses --      1.3789                 2.9649                 2.6036
 Frc consts  --      1.2523                 2.9094                 2.5768
 IR Inten    --     22.0911               387.5727               101.1852

                     52                     53                     54
                      A                      A                      A
 Frequencies --   1308.2050              1321.8442              1338.9822
 Red. masses --      1.3331                 1.4985                 1.3400
 Frc consts  --      1.3442                 1.5426                 1.4155
 IR Inten    --      9.9373                11.0184                 6.9188

                     55                     56                     57
                      A                      A                      A
 Frequencies --   1349.3090              1360.8126              1364.4803
 Red. masses --      1.4384                 1.7564                 2.5601
 Frc consts  --      1.5429                 1.9163                 2.8082
 IR Inten    --      3.6554                37.1842                36.0762

                     58                     59                     60
                      A                      A                      A
 Frequencies --   1376.9443              1386.2045              1408.2990
 Red. masses --      1.3230                 1.5145                 1.8268
 Frc consts  --      1.4779                 1.7147                 2.1347
 IR Inten    --      1.4364                62.2898                24.7691

                     61                     62                     63
                      A                      A                      A
 Frequencies --   1421.8674              1447.3254              1477.4457
 Red. masses --      1.4013                 1.7375                 1.0852
 Frc consts  --      1.6691                 2.1444                 1.3957
 IR Inten    --     10.1254                 3.0535                 2.0882

                     64                     65                     66
                      A                      A                      A
 Frequencies --   1491.4623              1634.1766              1712.9339
 Red. masses --      4.2075                 9.9931                 8.5463
 Frc consts  --      5.5144                15.7234                14.7743
 IR Inten    --    100.2234               698.3989               399.6930

                     67                     68                     69
                      A                      A                      A
 Frequencies --   1738.8107              3001.0826              3026.1996
 Red. masses --     10.1353                 1.0798                 1.0701
 Frc consts  --     18.0547                 5.7299                 5.7736
 IR Inten    --    640.2373                31.4120               107.3971

                     70                     71                     72
                      A                      A                      A
 Frequencies --   3052.4697              3090.4482              3105.5837
 Red. masses --      1.0865                 1.0868                 1.0978
 Frc consts  --      5.9646                 6.1155                 6.2384
 IR Inten    --     29.2393                27.6205                29.9073

                     73                     74                     75
                      A                      A                      A
 Frequencies --   3140.6075              3189.3578              3232.4767
 Red. masses --      1.0859                 1.0874                 1.0972
 Frc consts  --      6.3103                 6.5171                 6.7549
 IR Inten    --     27.6008                11.4820                18.0527

                     76                     77                     78
                      A                      A                      A
 Frequencies --   3782.3938              3787.3607              3886.2541
 Red. masses --      1.0653                 1.0655                 1.0667
 Frc consts  --      8.9796                 9.0048                 9.4918
 IR Inten    --     58.7103                78.3974                43.4322

 - Thermochemistry -
 -------------------
 Temperature   298.150 Kelvin.  Pressure   1.00000 Atm.
 Atom     1 has atomic number  6 and mass  12.00000

 Molecular mass:   243.06171 amu.
 Principal axes and moments of inertia in atomic units:
                           1         2         3
     Eigenvalues --  2173.987175944.428876828.81531
           X            1.00000  -0.00156   0.00191
           Y            0.00159   0.99990  -0.01370
           Z           -0.00189   0.01371   0.99990
 This molecule is an asymmetric top.
 Rotational symmetry number  1.
 Warning -- assumption of classical behavior for rotation
           may cause significant error
 Rotational temperatures (Kelvin)      0.03984     0.01457     0.01268
 Rotational constants (GHZ):           0.83015     0.30360     0.26428
 Zero-point vibrational energy     561018.5 (Joules/Mol)
                                  134.08664 (Kcal/Mol)
 Warning -- explicit consideration of  23 degrees of freedom as
           vibrations may cause significant error
 Vibrational temperatures:     48.63    56.02    80.10   132.32   174.68
          (Kelvin)            188.09   247.84   276.12   332.09   344.05
                              366.87   390.70   432.54   460.10   491.62
                              578.12   630.98   667.79   708.80   742.89
                              776.70   820.32   834.74   920.29   940.51
                             1026.65  1040.92  1090.22  1111.26  1130.60
                             1194.31  1244.97  1275.23  1302.20  1361.55
                             1378.23  1388.03  1429.59  1486.29  1539.77
                             1562.53  1585.35  1611.05  1647.60  1668.09
                             1721.53  1739.72  1752.21  1786.33  1856.80
                             1864.76  1882.22  1901.84  1926.50  1941.35
                             1957.91  1963.18  1981.12  1994.44  2026.23
                             2045.75  2082.38  2125.71  2145.88  2351.22
                             2464.53  2501.76  4317.89  4354.03  4391.82
                             4446.47  4468.24  4518.63  4588.77  4650.81
                             5442.02  5449.17  5591.45

 Zero-point correction=                           0.213681 (Hartree/Particle)
 Thermal correction to Energy=                    0.228848
 Thermal correction to Enthalpy=                  0.229793
 Thermal correction to Gibbs Free Energy=         0.170283
 Sum of electronic and zero-point Energies=           -909.443008
 Sum of electronic and thermal Energies=              -909.427840
 Sum of electronic and thermal Enthalpies=            -909.426896
 Sum of electronic and thermal Free Energies=         -909.486406

                     E (Thermal)             CV                S
                      KCal/Mol        Cal/Mol-Kelvin    Cal/Mol-Kelvin
 Total                  143.605             57.378            125.249
 Electronic               0.000              0.000              0.000
 Translational            0.889              2.981             42.365
 Rotational               0.889              2.981             32.845
 Vibrational            141.827             51.416             50.038
 Vibration     1          0.594              1.983              5.593
 Vibration     2          0.594              1.981              5.313
 Vibration     3          0.596              1.975              4.605
 Vibration     4          0.602              1.955              3.618
 Vibration     5          0.609              1.931              3.078
 Vibration     6          0.612              1.923              2.935
 Vibration     7          0.626              1.877              2.411
 Vibration     8          0.634              1.851              2.209
 Vibration     9          0.653              1.794              1.873
 Vibration    10          0.657              1.781              1.809
 Vibration    11          0.665              1.754              1.696
 Vibration    12          0.675              1.726              1.586
 Vibration    13          0.693              1.673              1.413
 Vibration    14          0.706              1.636              1.311
 Vibration    15          0.721              1.592              1.204
 Vibration    16          0.767              1.466              0.956
 Vibration    17          0.799              1.386              0.831
 Vibration    18          0.822              1.330              0.754
 Vibration    19          0.848              1.266              0.677
 Vibration    20          0.871              1.214              0.619
 Vibration    21          0.895              1.162              0.566
 Vibration    22          0.926              1.096              0.504
 Vibration    23          0.937              1.074              0.485

                           ! Non-Optimized Parameters !
 Normal termination of Gaussian 16 at Thu Oct 24 11:03:23 2024.
