 Gaussian 16, Revision C.01,
 Gaussian 16:  EM64L-G16RevC.01  3-Jul-2019

 ------------------------------------------------------
 # PBE1PBE/aug-cc-pVDZ opt freq EmpiricalDispersion=GD3
 ------------------------------------------------------

 ----
 blah
 ----
 Symbolic Z-matrix:
 Charge = -1 Multiplicity = 1

 SCF Done:  E(RPBE1PBE) =  -909.655483398     A.U. after   16 cycles
 SCF Done:  E(RPBE1PBE) =  -909.645366823     A.U. after   14 cycles
 SCF Done:  E(RPBE1PBE) =  -909.670661930     A.U. after   12 cycles
 SCF Done:  E(RPBE1PBE) =  -909.671529319     A.U. after   12 cycles
 SCF Done:  E(RPBE1PBE) =  -909.669443139     A.U. after   13 cycles
 SCF Done:  E(RPBE1PBE) =  -909.672603800     A.U. after   11 cycles
 SCF Done:  E(RPBE1PBE) =  -909.672646466     A.U. after   11 cycles
 SCF Done:  E(RPBE1PBE) =  -909.672772976     A.U. after   11 cycles
 SCF Done:  E(RPBE1PBE) =  -909.672844930     A.U. after   11 cycles
 SCF Done:  E(RPBE1PBE) =  -909.672956503     A.U. after   11 cycles
 SCF Done:  E(RPBE1PBE) =  -909.673161596     A.U. after   12 cycles
 SCF Done:  E(RPBE1PBE) =  -909.673394891     A.U. after   12 cycles
 SCF Done:  E(RPBE1PBE) =  -909.673388004     A.U. after   11 cycles
 SCF Done:  E(RPBE1PBE) =  -909.673525929     A.U. after   12 cycles
 SCF Done:  E(RPBE1PBE) =  -909.673527527     A.U. after   11 cycles
 SCF Done:  E(RPBE1PBE) =  -909.673575059     A.U. after   11 cycles
 SCF Done:  E(RPBE1PBE) =  -909.673580807     A.U. after    9 cycles
 SCF Done:  E(RPBE1PBE) =  -909.673580982     A.U. after   10 cycles
 SCF Done:  E(RPBE1PBE) =  -909.673582158     A.U. after   10 cycles
 Optimization completed.
    -- Stationary point found.
 Normal termination of Gaussian 16 at Thu Oct 24 07:40:17 2024.

 ----------------------------------------------------------------------
 #N Geom=AllCheck Guess=TCheck SCRF=Check GenChk RPBE1PBE/Aug-CC-pVDZ F
 req
 ----------------------------------------------------------------------

 Structure from the checkpoint file:  "/scr/Gau-48887.chk"
 ----
 blah
 ----
 Charge = -1 Multiplicity = 1

                         Standard orientation:
 ---------------------------------------------------------------------
 Center     Atomic      Atomic             Coordinates (Angstroms)
 Number     Number       Type             X           Y           Z
 ---------------------------------------------------------------------
      1          6           0       -2.682997   -0.521442    0.290090
      2          6           0       -1.277661   -0.717459    0.840214
      3          6           0       -0.438609   -0.717323   -0.442490
      4          8           0       -1.200993   -1.949780    1.544709
      5          1           0       -0.997140    0.129101    1.474041
      6          8           0       -1.084145    0.178139   -1.326756
      7          1           0       -0.481514   -1.740807   -0.855091
      8          7           0        0.955556   -0.410180   -0.289253
      9          6           0       -2.439203    0.395671   -0.909024
     10          1           0       -3.352295   -0.053631    1.027545
     11          8           0       -3.223424   -1.755646   -0.165966
     12          6           0       -2.639809    1.873341   -0.611658
     13          1           0       -3.108692    0.091439   -1.730350
     14          8           0       -2.019771    2.301647    0.566152
     15          1           0       -3.721409    2.061997   -0.505252
     16          1           0       -2.287810    2.438057   -1.495912
     17          1           0       -2.893513   -2.431303    0.439883
     18          1           0       -0.310394   -2.027593    1.899089
     19          1           0       -1.055607    2.082558    0.525065
     20          6           0        1.880238   -1.261837   -0.845106
     21          6           0        3.201991   -1.039367   -0.727438
     22          6           0        3.664712    0.140503    0.018031
     23          7           0        2.714993    1.003263    0.496787
     24          6           0        1.411897    0.793179    0.348880
     25          1           0        1.465623   -2.121382   -1.374550
     26          1           0        3.933065   -1.718445   -1.161537
     27          8           0        4.877890    0.328918    0.190000
     28          8           0        0.529504    1.580077    0.758776
 ---------------------------------------------------------------------

 SCF Done:  E(RPBE1PBE) =  -909.673582158     A.U. after    1 cycles

 The electronic state is 1-A.
 Alpha  occ. eigenvalues --  -19.15518 -19.13688 -19.13181 -19.09216 -19.04780
 Alpha  occ. eigenvalues --  -19.02733 -14.32651 -14.22003 -10.21810 -10.21555
 Alpha  occ. eigenvalues --  -10.19156 -10.18659 -10.18440 -10.17451 -10.17077
 Alpha  occ. eigenvalues --  -10.16686 -10.10472  -1.00418  -0.97907  -0.96055
 Alpha  occ. eigenvalues --   -0.93725  -0.92791  -0.89486  -0.86048  -0.76743
 Alpha  occ. eigenvalues --   -0.70417  -0.69175  -0.65826  -0.58678  -0.55369
 Alpha  occ. eigenvalues --   -0.53756  -0.51332  -0.49240  -0.46393  -0.44818
 Alpha  occ. eigenvalues --   -0.43616  -0.41513  -0.40945  -0.40355  -0.37752
 Alpha  occ. eigenvalues --   -0.36590  -0.34928  -0.33438  -0.32739  -0.32602
 Alpha  occ. eigenvalues --   -0.31455  -0.30792  -0.30105  -0.29406  -0.28575
 Alpha  occ. eigenvalues --   -0.27285  -0.25210  -0.24136  -0.23665  -0.23113
 Alpha  occ. eigenvalues --   -0.21059  -0.20140  -0.18704  -0.16465  -0.14729
 Alpha  occ. eigenvalues --   -0.13013  -0.11581  -0.10819  -0.10583
 Alpha virt. eigenvalues --    0.07476   0.08421   0.08967   0.09957   0.10455
 Alpha virt. eigenvalues --    0.11023   0.11592   0.11901   0.12069   0.13628
 Alpha virt. eigenvalues --    0.14274   0.14997   0.15135   0.15436   0.15710

 Mulliken charges:
               1
     1  C    1.055546
     2  C    0.975070
     3  C    1.027346
     4  O   -0.679769
     5  H   -0.576284
     6  O   -0.909582
     7  H   -0.514861
     8  N   -0.070676
     9  C    0.710778
    10  H   -0.357086
    11  O   -0.729642
    12  C    1.012838
    13  H   -0.427740
    14  O   -0.549134
    15  H   -0.291110
    16  H   -0.261433
    17  H    0.154200
    18  H    0.113899
    19  H    0.308084
    20  C    0.567526
    21  C    1.021779
    22  C    0.491077
    23  N   -0.529327
    24  C    0.505979
    25  H   -0.807260
    26  H   -0.581175
    27  O   -0.794244
    28  O   -0.864799
 Sum of Mulliken charges =  -1.00000

 Dipole moment (field-independent basis, Debye):
    X=             -9.2229    Y=             -6.2157    Z=             -1.8198  Tot=             11.2698
 Quadrupole moment (field-independent basis, Debye-Ang):
   XX=           -171.1239   YY=           -115.3486   ZZ=           -105.0522
   XY=            -12.6936   XZ=             -4.5895   YZ=             -7.3496

  Exact polarizability:     211.744      -6.465     142.970       2.291       8.325     117.313
 Approx polarizability:     280.945      -7.189     201.886       3.018      16.882     175.321

                      1                      2                      3
                      A                      A                      A
 Frequencies --     40.2544                64.8936                88.8212
 Red. masses --      8.5740                 5.2998                 6.4891
 Frc consts  --      0.0082                 0.0131                 0.0302
 IR Inten    --      3.2924                 3.4007                 4.8332

                      4                      5                      6
                      A                      A                      A
 Frequencies --    114.6069               151.6969               167.6021
 Red. masses --      5.8356                 5.8617                 7.7722
 Frc consts  --      0.0452                 0.0795                 0.1286
 IR Inten    --      2.1163                 3.9453                10.8755

                      7                      8                      9
                      A                      A                      A
 Frequencies --    183.7217               195.0900               206.6235
 Red. masses --      7.6088                 2.1699                 2.7361
 Frc consts  --      0.1513                 0.0487                 0.0688
 IR Inten    --      1.1951                38.3058                41.5718

                     10                     11                     12
                      A                      A                      A
 Frequencies --    237.5086               254.7044               265.5539
 Red. masses --      3.5315                 4.9159                 4.5196
 Frc consts  --      0.1174                 0.1879                 0.1878
 IR Inten    --     47.9909                 6.8794                14.3092

                     13                     14                     15
                      A                      A                      A
 Frequencies --    320.1237               337.6215               361.5198
 Red. masses --      4.1286                 3.2418                 5.6276
 Frc consts  --      0.2493                 0.2177                 0.4333
 IR Inten    --     11.9117                 4.9410                12.5319

                     16                     17                     18
                      A                      A                      A
 Frequencies --    407.6815               422.1093               426.2529
 Red. masses --      2.2602                 3.1015                 2.1588
 Frc consts  --      0.2213                 0.3256                 0.2311
 IR Inten    --     25.0414                19.4789                24.5546

                     19                     20                     21
                      A                      A                      A
 Frequencies --    452.3980               542.3771               573.1492
 Red. masses --      4.6951                 5.4727                 6.8839
 Frc consts  --      0.5662                 0.9485                 1.3324
 IR Inten    --      7.0479                19.9866                10.3688

                     22                     23                     24
                      A                      A                      A
 Frequencies --    582.4993               598.1581               654.8547
 Red. masses --      7.0686                 7.0484                 5.5073
 Frc consts  --      1.4131                 1.4859                 1.3915
 IR Inten    --     17.3404                18.9866                 8.8734

                     25                     26                     27
                      A                      A                      A
 Frequencies --    713.9476               723.3500               760.5748
 Red. masses --      5.0671                 1.7451                 7.1343
 Frc consts  --      1.5217                 0.5380                 2.4315
 IR Inten    --      5.0409                14.2991                10.6800

                     28                     29                     30
                      A                      A                      A
 Frequencies --    768.8219               791.9000               831.6288
 Red. masses --      6.0275                10.2901                 3.3789
 Frc consts  --      2.0991                 3.8020                 1.3769
 IR Inten    --     27.8941                14.7831                30.4165

                     31                     32                     33
                      A                      A                      A
 Frequencies --    857.4862               876.3832               896.3238
 Red. masses --      1.2643                 2.8250                 3.1251
 Frc consts  --      0.5477                 1.2784                 1.4793
 IR Inten    --    111.5700                37.3639                38.6573

                     34                     35                     36
                      A                      A                      A
 Frequencies --    928.7349               947.6030               947.9777
 Red. masses --      2.9927                 1.3270                 2.2170
 Frc consts  --      1.5209                 0.7020                 1.1738
 IR Inten    --      5.8980                 1.3432                19.9832

                     37                     38                     39
                      A                      A                      A
 Frequencies --    983.4871              1018.9628              1065.4864
 Red. masses --      4.5769                 2.1870                 2.5770
 Frc consts  --      2.6083                 1.3379                 1.7237
 IR Inten    --     25.2517                26.2237                79.2122

                     40                     41                     42
                      A                      A                      A
 Frequencies --   1088.2146              1106.2094              1113.4630
 Red. masses --      2.5954                 2.8166                 2.0063
 Frc consts  --      1.8108                 2.0308                 1.4656
 IR Inten    --     19.6947               108.0343                58.3269

                     43                     44                     45
                      A                      A                      A
 Frequencies --   1133.7222              1142.3514              1172.0067
 Red. masses --      2.7543                 3.2556                 3.1769
 Frc consts  --      2.0858                 2.5031                 2.5710
 IR Inten    --     46.3856                92.0410                94.5784

                     46                     47                     48
                      A                      A                      A
 Frequencies --   1207.5422              1239.7514              1254.7071
 Red. masses --      1.3318                 1.5716                 1.4149
 Frc consts  --      1.1442                 1.4232                 1.3124
 IR Inten    --     49.4299                52.3217                15.6596

                     49                     50                     51
                      A                      A                      A
 Frequencies --   1257.6293              1263.6503              1291.8615
 Red. masses --      1.2855                 1.3627                 2.2097
 Frc consts  --      1.1979                 1.2820                 2.1728
 IR Inten    --      7.2151                75.3564                37.9590

                     52                     53                     54
                      A                      A                      A
 Frequencies --   1306.3463              1311.7995              1347.3367
 Red. masses --      1.6771                 1.8362                 1.6392
 Frc consts  --      1.6863                 1.8617                 1.7532
 IR Inten    --     69.6310               122.0998                61.6646

                     55                     56                     57
                      A                      A                      A
 Frequencies --   1356.6691              1363.9714              1369.0630
 Red. masses --      1.8518                 2.0506                 1.6474
 Frc consts  --      2.0082                 2.2478                 1.8192
 IR Inten    --     54.0992                49.2303                17.7892

                     58                     59                     60
                      A                      A                      A
 Frequencies --   1377.1216              1414.7016              1434.8146
 Red. masses --      1.4048                 1.6580                 1.6764
 Frc consts  --      1.5697                 1.9550                 2.0334
 IR Inten    --      5.5988                43.2248                 1.9310

                     61                     62                     63
                      A                      A                      A
 Frequencies --   1447.6276              1466.6402              1480.3743
 Red. masses --      1.6457                 1.0956                 3.8995
 Frc consts  --      2.0320                 1.3885                 5.0350
 IR Inten    --      1.4562                 2.8666                81.7944

                     64                     65                     66
                      A                      A                      A
 Frequencies --   1486.9477              1624.8405              1710.3980
 Red. masses --      1.1754                 9.5914                10.9135
 Frc consts  --      1.5312                14.9195                18.8109
 IR Inten    --     49.1510              1077.7717               160.5805

                     67                     68                     69
                      A                      A                      A
 Frequencies --   1724.5881              2988.2238              3012.2603
 Red. masses --      7.9828                 1.0637                 1.0832
 Frc consts  --     13.9886                 5.5964                 5.7910
 IR Inten    --    976.3209               102.9305                46.1155

                     70                     71                     72
                      A                      A                      A
 Frequencies --   3045.0089              3055.3615              3067.3199
 Red. masses --      1.0901                 1.0934                 1.0874
 Frc consts  --      5.9550                 6.0141                 6.0279
 IR Inten    --     35.4240               109.8670                66.4216

                     73                     74                     75
                      A                      A                      A
 Frequencies --   3152.2865              3186.9538              3236.3585
 Red. masses --      1.0873                 1.0894                 1.0970
 Frc consts  --      6.3656                 6.5192                 6.7700
 IR Inten    --      1.3828                12.6763                18.3671

                     76                     77                     78
                      A                      A                      A
 Frequencies --   3329.9436              3808.2458              3876.6018
 Red. masses --      1.0731                 1.0655                 1.0666
 Frc consts  --      7.0107                 9.1048                 9.4443
 IR Inten    --   1183.4846                51.3297                41.0523

 - Thermochemistry -
 -------------------
 Temperature   298.150 Kelvin.  Pressure   1.00000 Atm.
 Atom     1 has atomic number  6 and mass  12.00000

 Molecular mass:   243.06171 amu.
 Principal axes and moments of inertia in atomic units:
                           1         2         3
     Eigenvalues --  1906.096355722.817206587.72842
           X            0.99988  -0.01567  -0.00196
           Y            0.01565   0.99984  -0.00853
           Z            0.00209   0.00850   0.99996
 This molecule is an asymmetric top.
 Rotational symmetry number  1.
 Warning -- assumption of classical behavior for rotation
           may cause significant error
 Rotational temperatures (Kelvin)      0.04544     0.01513     0.01315
 Rotational constants (GHZ):           0.94683     0.31536     0.27396
 Zero-point vibrational energy     562337.0 (Joules/Mol)
                                  134.40177 (Kcal/Mol)
 Warning -- explicit consideration of  23 degrees of freedom as
           vibrations may cause significant error
 Vibrational temperatures:     57.92    93.37   127.79   164.89   218.26
          (Kelvin)            241.14   264.33   280.69   297.29   341.72
                              366.46   382.07   460.59   485.76   520.15
                              586.56   607.32   613.28   650.90   780.36
                              824.63   838.09   860.62   942.19  1027.21
                             1040.74  1094.30  1106.16  1139.37  1196.53
                             1233.73  1260.92  1289.61  1336.24  1363.39
                             1363.93  1415.02  1466.06  1533.00  1565.70
                             1591.59  1602.02  1631.17  1643.59  1686.26
                             1737.38  1783.73  1805.24  1809.45  1818.11
                             1858.70  1879.54  1887.39  1938.52  1951.94
                             1962.45  1969.78  1981.37  2035.44  2064.38
                             2082.81  2110.17  2129.93  2139.39  2337.78
                             2460.88  2481.30  4299.39  4333.97  4381.09
                             4395.98  4413.19  4535.44  4585.32  4656.40
                             4791.05  5479.22  5577.57

 Zero-point correction=                           0.214183 (Hartree/Particle)
 Thermal correction to Energy=                    0.228918
 Thermal correction to Enthalpy=                  0.229863
 Thermal correction to Gibbs Free Energy=         0.172357
 Sum of electronic and zero-point Energies=           -909.459399
 Sum of electronic and thermal Energies=              -909.444664
 Sum of electronic and thermal Enthalpies=            -909.443720
 Sum of electronic and thermal Free Energies=         -909.501225

                     E (Thermal)             CV                S
                      KCal/Mol        Cal/Mol-Kelvin    Cal/Mol-Kelvin
 Total                  143.648             56.508            121.030
 Electronic               0.000              0.000              0.000
 Translational            0.889              2.981             42.365
 Rotational               0.889              2.981             32.641
 Vibrational            141.871             50.546             46.024
 Vibration     1          0.594              1.981              5.247
 Vibration     2          0.597              1.971              4.303
 Vibration     3          0.602              1.957              3.686
 Vibration     4          0.608              1.937              3.189
 Vibration     5          0.619              1.901              2.651
 Vibration     6          0.624              1.882              2.462
 Vibration     7          0.631              1.862              2.290
 Vibration     8          0.636              1.847              2.179
 Vibration     9          0.641              1.830              2.073
 Vibration    10          0.656              1.783              1.821
 Vibration    11          0.665              1.755              1.698
 Vibration    12          0.671              1.736              1.625
 Vibration    13          0.706              1.635              1.309
 Vibration    14          0.718              1.600              1.223
 Vibration    15          0.736              1.552              1.116
 Vibration    16          0.772              1.454              0.935
 Vibration    17          0.784              1.422              0.885
 Vibration    18          0.788              1.413              0.871
 Vibration    19          0.811              1.356              0.789
 Vibration    20          0.897              1.156              0.560
 Vibration    21          0.929              1.089              0.498
 Vibration    22          0.939              1.069              0.481
 Vibration    23          0.956              1.036              0.453

                           ! Non-Optimized Parameters !
 Normal termination of Gaussian 16 at Thu Oct 24 07:55:40 2024.
