 Gaussian 16, Revision C.01,
 Gaussian 16:  EM64L-G16RevC.01  3-Jul-2019

 ------------------------------------------------------
 # PBE1PBE/aug-cc-pVDZ opt freq EmpiricalDispersion=GD3
 ------------------------------------------------------

 ----
 blah
 ----
 Symbolic Z-matrix:
 Charge =  0 Multiplicity = 2

 SCF Done:  E(UPBE1PBE) =  -909.508109128     A.U. after   71 cycles
 SCF Done:  E(UPBE1PBE) =  -909.509790714     A.U. after   35 cycles
 SCF Done:  E(UPBE1PBE) =  -909.512722392     A.U. after   31 cycles
 SCF Done:  E(UPBE1PBE) =  -909.514582903     A.U. after   29 cycles
 SCF Done:  E(UPBE1PBE) =  -909.515250132     A.U. after   30 cycles
 SCF Done:  E(UPBE1PBE) =  -909.515756048     A.U. after   27 cycles
 SCF Done:  E(UPBE1PBE) =  -909.516096933     A.U. after   24 cycles
 SCF Done:  E(UPBE1PBE) =  -909.516276864     A.U. after   25 cycles
 SCF Done:  E(UPBE1PBE) =  -909.516331492     A.U. after   23 cycles
 SCF Done:  E(UPBE1PBE) =  -909.516347403     A.U. after   24 cycles
 SCF Done:  E(UPBE1PBE) =  -909.516360822     A.U. after   23 cycles
 SCF Done:  E(UPBE1PBE) =  -909.516373866     A.U. after   23 cycles
 SCF Done:  E(UPBE1PBE) =  -909.516379286     A.U. after   22 cycles
 SCF Done:  E(UPBE1PBE) =  -909.516384502     A.U. after   23 cycles
 SCF Done:  E(UPBE1PBE) =  -909.516388260     A.U. after   22 cycles
 SCF Done:  E(UPBE1PBE) =  -909.516389657     A.U. after   21 cycles
 SCF Done:  E(UPBE1PBE) =  -909.516390830     A.U. after   23 cycles
 SCF Done:  E(UPBE1PBE) =  -909.516391077     A.U. after   22 cycles
 Optimization completed.
    -- Stationary point found.
 Normal termination of Gaussian 16 at Sat Oct 26 20:16:32 2024.

 ----------------------------------------------------------------------
 #N Geom=AllCheck Guess=TCheck SCRF=Check GenChk UPBE1PBE/Aug-CC-pVDZ F
 req
 ----------------------------------------------------------------------

 Structure from the checkpoint file:  "/scr/Gau-86149.chk"
 ----
 blah
 ----
 Charge =  0 Multiplicity = 2

                         Standard orientation:
 ---------------------------------------------------------------------
 Center     Atomic      Atomic             Coordinates (Angstroms)
 Number     Number       Type             X           Y           Z
 ---------------------------------------------------------------------
      1          6           0        2.254774   -0.217514   -0.622002
      2          6           0        1.151295   -1.295143   -0.607399
      3          6           0        0.301059   -0.922134    0.621449
      4          8           0        1.698386   -2.574036   -0.387013
      5          1           0        0.549546   -1.283510   -1.527516
      6          8           0        0.935054    0.117459    1.309828
      7          1           0        0.228611   -1.820294    1.253215
      8          7           0       -1.078251   -0.522566    0.337171
      9          6           0        2.260426    0.322761    0.807425
     10          1           0        1.995460    0.580779   -1.323107
     11          8           0        3.524868   -0.778582   -0.922024
     12          6           0        2.596489    1.795621    0.932988
     13          1           0        2.974150   -0.269276    1.405983
     14          8           0        1.926004    2.612234    0.006498
     15          1           0        3.675076    1.920861    0.758538
     16          1           0        2.386923    2.102959    1.972895
     17          1           0        3.748304   -0.569239   -1.832714
     18          1           0        2.636420   -2.503774   -0.623717
     19          1           0        1.022192    2.282591   -0.115385
     20          6           0       -2.093638   -1.174027    0.944341
     21          6           0       -3.389126   -0.800427    0.746036
     22          6           0       -3.580414    0.254029   -0.205338
     23          7           0       -2.604288    0.894110   -0.825257
     24          6           0       -1.311294    0.581699   -0.527800
     25          1           0       -1.812737   -1.979722    1.621814
     26          1           0       -4.223403   -1.277307    1.250165
     27          8           0       -4.804327    0.580219   -0.491433
     28          8           0       -0.347510    1.160948   -1.011078
 ---------------------------------------------------------------------

 SCF Done:  E(UPBE1PBE) =  -909.516391077     A.U. after    1 cycles

 The electronic state is 2-A.
 Alpha  occ. eigenvalues --  -19.32651 -19.26642 -19.26227 -19.24038 -19.21466
 Alpha  occ. eigenvalues --  -19.21210 -14.50240 -14.42404 -10.38781 -10.37423
 Alpha  occ. eigenvalues --  -10.35358 -10.34174 -10.30729 -10.30349 -10.29881
 Alpha  occ. eigenvalues --  -10.28827 -10.27919  -1.15152  -1.13519  -1.10879
 Alpha  occ. eigenvalues --   -1.09618  -1.06861  -1.04824  -1.03420  -0.96720
 Alpha  occ. eigenvalues --   -0.85767  -0.81652  -0.80119  -0.72911  -0.72021
 Alpha  occ. eigenvalues --   -0.68586  -0.65610  -0.63054  -0.61127  -0.59267
 Alpha  occ. eigenvalues --   -0.57322  -0.55509  -0.54795  -0.53018  -0.51804
 Alpha  occ. eigenvalues --   -0.51207  -0.50498  -0.50119  -0.49864  -0.48215
 Alpha  occ. eigenvalues --   -0.46322  -0.46126  -0.45455  -0.43646  -0.41769
 Alpha  occ. eigenvalues --   -0.40583  -0.40306  -0.40001  -0.38201  -0.36961
 Alpha  occ. eigenvalues --   -0.35632  -0.33712  -0.32772  -0.32330  -0.31762
 Alpha  occ. eigenvalues --   -0.30750  -0.29717  -0.28504  -0.28013
 Alpha virt. eigenvalues --   -0.06977  -0.02393  -0.01598  -0.01279   0.00498
 Alpha virt. eigenvalues --    0.01214   0.01705   0.02293   0.03247   0.03883
 Alpha virt. eigenvalues --    0.04142   0.04561   0.04860   0.05417   0.06010

  Beta  occ. eigenvalues --  -19.30419 -19.26640 -19.26194 -19.24037 -19.21461
  Beta  occ. eigenvalues --  -19.21209 -14.50073 -14.42140 -10.38812 -10.37604
  Beta  occ. eigenvalues --  -10.35366 -10.34223 -10.30717 -10.30347 -10.29882
  Beta  occ. eigenvalues --  -10.28610 -10.27919  -1.13658  -1.11374  -1.10019
  Beta  occ. eigenvalues --   -1.09336  -1.06856  -1.04787  -1.03143  -0.95534
  Beta  occ. eigenvalues --   -0.85354  -0.81630  -0.79897  -0.72683  -0.71725
  Beta  occ. eigenvalues --   -0.68048  -0.65423  -0.62931  -0.60527  -0.58993
  Beta  occ. eigenvalues --   -0.57233  -0.55324  -0.53887  -0.52635  -0.51502
  Beta  occ. eigenvalues --   -0.50648  -0.50337  -0.49748  -0.48330  -0.47588
  Beta  occ. eigenvalues --   -0.46223  -0.45518  -0.43981  -0.43304  -0.41697
  Beta  occ. eigenvalues --   -0.40280  -0.40081  -0.38163  -0.36950  -0.35579
  Beta  occ. eigenvalues --   -0.33214  -0.32673  -0.31977  -0.31313  -0.30706
  Beta  occ. eigenvalues --   -0.29657  -0.28004  -0.27672
  Beta virt. eigenvalues --   -0.20399  -0.06079  -0.02134  -0.01580  -0.01269
  Beta virt. eigenvalues --    0.00517   0.01233   0.01720   0.02324   0.03260
  Beta virt. eigenvalues --    0.03897   0.04165   0.04586   0.04904   0.05429

 Mulliken charges and spin densities:
               1          2
     1  C    0.897448   0.001464
     2  C    0.935751   0.006314
     3  C    1.126078  -0.013722
     4  O   -0.677266   0.000106
     5  H   -0.429643   0.000240
     6  O   -0.949934   0.009919
     7  H   -0.389168   0.001959
     8  N    0.168934   0.081265
     9  C    0.471382   0.000678
    10  H   -0.496497  -0.000084
    11  O   -0.631018   0.000814
    12  C    1.215131  -0.000077
    13  H   -0.478807   0.000696
    14  O   -0.526812   0.000601
    15  H   -0.242999  -0.000032
    16  H   -0.212311   0.000049
    17  H    0.170637  -0.000107
    18  H    0.167808   0.000129
    19  H    0.178211  -0.000164
    20  C    0.606683  -0.055967
    21  C    0.986867   0.185160
    22  C    0.552122  -0.203714
    23  N   -0.470229   0.131704
    24  C    0.465724  -0.013688
    25  H   -0.759974   0.003938
    26  H   -0.496090  -0.000826
    27  O   -0.516388   0.859612
    28  O   -0.665640   0.003734
 Sum of Mulliken charges =  -0.00000   1.00000

 Dipole moment (field-independent basis, Debye):
    X=              0.5828    Y=             -4.6507    Z=              1.9737  Tot=              5.0857
 Quadrupole moment (field-independent basis, Debye-Ang):
   XX=            -93.9975   YY=           -109.8861   ZZ=            -94.2386
   XY=              6.6544   XZ=            -12.1762   YZ=              1.9184

  Exact polarizability:     330.813     -31.049     143.853      26.284     -22.983     122.942
 Approx polarizability:     312.282      -7.257     202.111       5.491     -39.202     184.402

                      1                      2                      3
                      A                      A                      A
 Frequencies --     43.7417                58.0217                71.9432
 Red. masses --      8.4828                 5.7722                 6.3357
 Frc consts  --      0.0096                 0.0114                 0.0193
 IR Inten    --      1.6142                 4.6992                16.9380

                      4                      5                      6
                      A                      A                      A
 Frequencies --     91.6454               119.2129               126.3070
 Red. masses --      7.4398                 5.2915                 8.9718
 Frc consts  --      0.0368                 0.0443                 0.0843
 IR Inten    --      1.9482                 4.4636                 6.8645

                      7                      8                      9
                      A                      A                      A
 Frequencies --    163.1526               193.8163               224.8374
 Red. masses --      9.6696                 5.6336                 3.0978
 Frc consts  --      0.1517                 0.1247                 0.0923
 IR Inten    --      4.3759                56.0090                31.7691

                     10                     11                     12
                      A                      A                      A
 Frequencies --    237.5801               268.8171               284.0392
 Red. masses --      2.0057                 4.0659                 2.7090
 Frc consts  --      0.0667                 0.1731                 0.1288
 IR Inten    --      7.8161                49.6373                 5.9454

                     13                     14                     15
                      A                      A                      A
 Frequencies --    308.5660               328.0686               335.8678
 Red. masses --      6.4534                 5.2282                 7.1067
 Frc consts  --      0.3620                 0.3315                 0.4723
 IR Inten    --     53.7801                34.7221                27.9721

                     16                     17                     18
                      A                      A                      A
 Frequencies --    374.0394               405.1138               449.1057
 Red. masses --      4.2635                 4.2082                 4.2486
 Frc consts  --      0.3514                 0.4069                 0.5049
 IR Inten    --    255.9143               749.6002               730.5455

                     19                     20                     21
                      A                      A                      A
 Frequencies --    495.1303               518.7931               527.8925
 Red. masses --      6.3632                 1.1086                 1.2268
 Frc consts  --      0.9191                 0.1758                 0.2014
 IR Inten    --    882.0220               191.1244                31.8884

                     22                     23                     24
                      A                      A                      A
 Frequencies --    568.9917               577.1602               585.9244
 Red. masses --      5.2286                 5.0614                 6.7622
 Frc consts  --      0.9973                 0.9934                 1.3678
 IR Inten    --     56.9954               333.7560                 7.9526

                     25                     26                     27
                      A                      A                      A
 Frequencies --    620.8978               648.6437               705.3942
 Red. masses --      6.1999                 4.6233                 3.3248
 Frc consts  --      1.4082                 1.1461                 0.9747
 IR Inten    --    593.6824                33.6876                52.9154

                     28                     29                     30
                      A                      A                      A
 Frequencies --    725.9176               751.1407               764.7382
 Red. masses --      4.9658                 5.0808                 1.6876
 Frc consts  --      1.5418                 1.6890                 0.5815
 IR Inten    --     52.3798                 0.6904                40.0062

                     31                     32                     33
                      A                      A                      A
 Frequencies --    795.9775               859.7275               883.9180
 Red. masses --     10.4517                 4.7898                 3.6067
 Frc consts  --      3.9016                 2.0859                 1.6603
 IR Inten    --     45.7348                 0.8616                27.7885

                     34                     35                     36
                      A                      A                      A
 Frequencies --    899.1423               918.1461               969.6630
 Red. masses --      2.3455                 5.1056                 1.7540
 Frc consts  --      1.1172                 2.5358                 0.9717
 IR Inten    --     39.6570              1165.8905                51.1780

                     37                     38                     39
                      A                      A                      A
 Frequencies --    980.1443              1009.8890              1047.9502
 Red. masses --      2.5844                 3.7794                 2.3619
 Frc consts  --      1.4628                 2.2710                 1.5282
 IR Inten    --    148.2159               396.6987                25.8415

                     40                     41                     42
                      A                      A                      A
 Frequencies --   1064.4268              1084.3646              1113.6659
 Red. masses --      2.6857                 2.4933                 3.3367
 Frc consts  --      1.7928                 1.7273                 2.4382
 IR Inten    --     54.9996                35.2494                63.6315

                     43                     44                     45
                      A                      A                      A
 Frequencies --   1118.6458              1143.1776              1161.7315
 Red. masses --      1.9354                 4.4835                 2.8547
 Frc consts  --      1.4270                 3.4522                 2.2700
 IR Inten    --      3.6112               133.4285                29.2364

                     46                     47                     48
                      A                      A                      A
 Frequencies --   1170.6806              1180.9270              1203.9104
 Red. masses --      3.5677                 2.3765                 1.9052
 Frc consts  --      2.8808                 1.9527                 1.6270
 IR Inten    --    105.0223                 7.3248                36.1164

                     49                     50                     51
                      A                      A                      A
 Frequencies --   1226.2411              1239.1380              1260.1757
 Red. masses --      2.1631                 1.2503                 1.2496
 Frc consts  --      1.9163                 1.1311                 1.1692
 IR Inten    --     34.9246                 2.5971                41.8503

                     52                     53                     54
                      A                      A                      A
 Frequencies --   1292.4763              1309.0899              1316.2184
 Red. masses --      1.3869                 1.3788                 1.3892
 Frc consts  --      1.3650                 1.3922                 1.4180
 IR Inten    --     39.2866                12.8297                 5.9275

                     55                     56                     57
                      A                      A                      A
 Frequencies --   1338.2347              1345.9176              1362.2369
 Red. masses --      1.4020                 1.4201                 1.4417
 Frc consts  --      1.4793                 1.5156                 1.5763
 IR Inten    --      8.8276                15.4612                 6.1621

                     58                     59                     60
                      A                      A                      A
 Frequencies --   1374.9191              1384.2389              1394.5253
 Red. masses --      1.3062                 3.4574                 1.3918
 Frc consts  --      1.4549                 3.9033                 1.5947
 IR Inten    --     11.1549               125.2331                90.5641

                     61                     62                     63
                      A                      A                      A
 Frequencies --   1431.6791              1437.4947              1451.5579
 Red. masses --      1.4811                 1.3578                 1.5879
 Frc consts  --      1.7887                 1.6531                 1.9712
 IR Inten    --     42.3167                37.5029                 2.8015

                     64                     65                     66
                      A                      A                      A
 Frequencies --   1477.3955              1524.4405              1633.1518
 Red. masses --      1.0790                 5.6461                 6.0728
 Frc consts  --      1.3876                 7.7307                 9.5432
 IR Inten    --      2.5047                51.2348               101.9585

                     67                     68                     69
                      A                      A                      A
 Frequencies --   1749.8437              3018.8392              3039.9046
 Red. masses --     11.8376                 1.0676                 1.0846
 Frc consts  --     21.3556                 5.7325                 5.9053
 IR Inten    --    935.0655                38.8996                58.9858

                     70                     71                     72
                      A                      A                      A
 Frequencies --   3065.3541              3075.5062              3098.1562
 Red. masses --      1.0861                 1.0871                 1.0965
 Frc consts  --      6.0126                 6.0582                 6.2010
 IR Inten    --     24.4682                23.0545                32.9369

                     73                     74                     75
                      A                      A                      A
 Frequencies --   3155.1131              3225.1150              3276.7862
 Red. masses --      1.0881                 1.0918                 1.0967
 Frc consts  --      6.3819                 6.6909                 6.9383
 IR Inten    --      2.0646                 9.6455                 1.0466

                     76                     77                     78
                      A                      A                      A
 Frequencies --   3726.0239              3727.8643              3893.0250
 Red. masses --      1.0661                 1.0666                 1.0671
 Frc consts  --      8.7205                 8.7329                 9.5286
 IR Inten    --     29.6127               430.2575                82.6596

 - Thermochemistry -
 -------------------
 Temperature   298.150 Kelvin.  Pressure   1.00000 Atm.
 Atom     1 has atomic number  6 and mass  12.00000

 Molecular mass:   243.06171 amu.
 Principal axes and moments of inertia in atomic units:
                           1         2         3
     Eigenvalues --  1949.387995747.410746639.06230
           X            0.99990   0.01285  -0.00615
           Y           -0.01281   0.99990   0.00620
           Z            0.00623  -0.00612   0.99996
 This molecule is an asymmetric top.
 Rotational symmetry number  1.
 Warning -- assumption of classical behavior for rotation
           may cause significant error
 Rotational temperatures (Kelvin)      0.04443     0.01507     0.01305
 Rotational constants (GHZ):           0.92580     0.31401     0.27184
 Zero-point vibrational energy     556450.5 (Joules/Mol)
                                  132.99485 (Kcal/Mol)
 Warning -- explicit consideration of  24 degrees of freedom as
           vibrations may cause significant error
 Vibrational temperatures:     62.93    83.48   103.51   131.86   171.52
          (Kelvin)            181.73   234.74   278.86   323.49   341.82
                              386.77   408.67   443.96   472.02   483.24
                              538.16   582.87   646.16   712.38   746.43
                              759.52   818.65   830.40   843.01   893.33
                              933.25  1014.90  1044.43  1080.72  1100.29
                             1145.23  1236.96  1271.76  1293.67  1321.01
                             1395.13  1410.21  1453.01  1507.77  1531.47
                             1560.16  1602.32  1609.48  1644.78  1671.47
                             1684.35  1699.09  1732.16  1764.29  1782.84
                             1813.11  1859.59  1883.49  1893.74  1925.42
                             1936.48  1959.96  1978.20  1991.61  2006.41
                             2059.87  2068.23  2088.47  2125.64  2193.33
                             2349.74  2517.63  4343.44  4373.74  4410.36
                             4424.97  4457.56  4539.50  4640.22  4714.56
                             5360.92  5363.57  5601.19

 Zero-point correction=                           0.211941 (Hartree/Particle)
 Thermal correction to Energy=                    0.227210
 Thermal correction to Enthalpy=                  0.228154
 Thermal correction to Gibbs Free Energy=         0.168600
 Sum of electronic and zero-point Energies=           -909.304450
 Sum of electronic and thermal Energies=              -909.289181
 Sum of electronic and thermal Enthalpies=            -909.288237
 Sum of electronic and thermal Free Energies=         -909.347791

                     E (Thermal)             CV                S
                      KCal/Mol        Cal/Mol-Kelvin    Cal/Mol-Kelvin
 Total                  142.576             58.213            125.341
 Electronic               0.000              0.000              1.377
 Translational            0.889              2.981             42.365
 Rotational               0.889              2.981             32.675
 Vibrational            140.799             52.251             48.923
 Vibration     1          0.595              1.980              5.082
 Vibration     2          0.596              1.974              4.523
 Vibration     3          0.598              1.967              4.099
 Vibration     4          0.602              1.955              3.625
 Vibration     5          0.609              1.933              3.113
 Vibration     6          0.611              1.927              3.002
 Vibration     7          0.623              1.888              2.513
 Vibration     8          0.635              1.848              2.191
 Vibration     9          0.649              1.803              1.920
 Vibration    10          0.656              1.783              1.821
 Vibration    11          0.673              1.731              1.604
 Vibration    12          0.682              1.703              1.509
 Vibration    13          0.698              1.657              1.370
 Vibration    14          0.711              1.619              1.270
 Vibration    15          0.717              1.604              1.232
 Vibration    16          0.745              1.525              1.063
 Vibration    17          0.770              1.459              0.944
 Vibration    18          0.808              1.363              0.798
 Vibration    19          0.851              1.261              0.670
 Vibration    20          0.874              1.208              0.613
 Vibration    21          0.883              1.188              0.592
 Vibration    22          0.925              1.098              0.506
 Vibration    23          0.934              1.081              0.491
 Vibration    24          0.943              1.062              0.475

                           ! Non-Optimized Parameters !
 Normal termination of Gaussian 16 at Sat Oct 26 20:42:55 2024.
