 Gaussian 16, Revision C.01,
 Gaussian 16:  EM64L-G16RevC.01  3-Jul-2019

 ------------------------------------------------------
 # PBE1PBE/aug-cc-pVDZ opt freq EmpiricalDispersion=GD3
 ------------------------------------------------------

 ----
 blah
 ----
 Symbolic Z-matrix:
 Charge =  0 Multiplicity = 1

 SCF Done:  E(RPBE1PBE) =  -910.207368587     A.U. after   14 cycles
 SCF Done:  E(RPBE1PBE) =  -910.216181188     A.U. after   12 cycles
 SCF Done:  E(RPBE1PBE) =  -910.215191564     A.U. after   13 cycles
 SCF Done:  E(RPBE1PBE) =  -910.217775667     A.U. after   13 cycles
 SCF Done:  E(RPBE1PBE) =  -910.218509357     A.U. after   11 cycles
 SCF Done:  E(RPBE1PBE) =  -910.218700535     A.U. after   11 cycles
 SCF Done:  E(RPBE1PBE) =  -910.218801799     A.U. after   11 cycles
 SCF Done:  E(RPBE1PBE) =  -910.218879704     A.U. after   11 cycles
 SCF Done:  E(RPBE1PBE) =  -910.218976059     A.U. after   11 cycles
 SCF Done:  E(RPBE1PBE) =  -910.219064589     A.U. after   11 cycles
 SCF Done:  E(RPBE1PBE) =  -910.219807033     A.U. after   11 cycles
 SCF Done:  E(RPBE1PBE) =  -910.219877878     A.U. after   11 cycles
 SCF Done:  E(RPBE1PBE) =  -910.219839332     A.U. after   11 cycles
 SCF Done:  E(RPBE1PBE) =  -910.219886802     A.U. after   11 cycles
 SCF Done:  E(RPBE1PBE) =  -910.219882300     A.U. after   10 cycles
 SCF Done:  E(RPBE1PBE) =  -910.219888284     A.U. after   10 cycles
 SCF Done:  E(RPBE1PBE) =  -910.219886120     A.U. after    9 cycles
 SCF Done:  E(RPBE1PBE) =  -910.219888504     A.U. after    9 cycles
 SCF Done:  E(RPBE1PBE) =  -910.219888522     A.U. after    7 cycles
 Optimization completed.
    -- Stationary point found.
 Normal termination of Gaussian 16 at Thu Oct 17 07:32:24 2024.

 ----------------------------------------------------------------------
 #N Geom=AllCheck Guess=TCheck SCRF=Check GenChk RPBE1PBE/Aug-CC-pVDZ F
 req
 ----------------------------------------------------------------------

 Structure from the checkpoint file:  "/scr/Gau-49911.chk"
 ----
 blah
 ----
 Charge =  0 Multiplicity = 1

                         Standard orientation:
 ---------------------------------------------------------------------
 Center     Atomic      Atomic             Coordinates (Angstroms)
 Number     Number       Type             X           Y           Z
 ---------------------------------------------------------------------
      1          6           0       -2.296403    0.201147   -0.625986
      2          6           0       -1.209768    1.292284   -0.615735
      3          6           0       -0.341776    0.926306    0.603225
      4          8           0       -1.776156    2.560603   -0.380540
      5          1           0       -0.615552    1.298340   -1.541325
      6          8           0       -0.970051   -0.123512    1.293777
      7          1           0       -0.277040    1.822727    1.236594
      8          7           0        1.037790    0.547535    0.317007
      9          6           0       -2.302917   -0.313213    0.812536
     10          1           0       -2.016505   -0.606884   -1.308639
     11          8           0       -3.572864    0.734031   -0.947394
     12          6           0       -2.652383   -1.779852    0.961482
     13          1           0       -3.006601    0.297037    1.404991
     14          8           0       -1.951963   -2.613601    0.069380
     15          1           0       -3.724565   -1.907218    0.754645
     16          1           0       -2.473595   -2.070266    2.011452
     17          1           0       -3.779348    0.516550   -1.860103
     18          1           0       -2.708018    2.486737   -0.637852
     19          1           0       -1.045888   -2.284751   -0.019157
     20          6           0        2.076976    1.216567    0.918492
     21          6           0        3.374608    0.902202    0.724064
     22          6           0        3.722794   -0.203215   -0.148071
     23          7           0        2.599211   -0.837969   -0.701290
     24          6           0        1.275671   -0.534050   -0.517583
     25          1           0        1.774308    2.035184    1.569670
     26          1           0        4.172987    1.453411    1.210872
     27          1           0        2.781709   -1.625612   -1.312169
     28          8           0        4.842214   -0.597544   -0.415457
     29          8           0        0.376107   -1.163885   -1.056457
 ---------------------------------------------------------------------

 SCF Done:  E(RPBE1PBE) =  -910.219888522     A.U. after    1 cycles

 The electronic state is 1-A.
 Alpha  occ. eigenvalues --  -19.26725 -19.26036 -19.24054 -19.22942 -19.21859
 Alpha  occ. eigenvalues --  -19.21396 -14.48995 -14.46919 -10.40555 -10.36511
 Alpha  occ. eigenvalues --  -10.35198 -10.32809 -10.30642 -10.30420 -10.29946
 Alpha  occ. eigenvalues --  -10.28217 -10.26557  -1.14284  -1.11894  -1.09853
 Alpha  occ. eigenvalues --   -1.09291  -1.06896  -1.05283  -1.03279  -0.98008
 Alpha  occ. eigenvalues --   -0.84916  -0.81718  -0.80227  -0.74093  -0.72030
 Alpha  occ. eigenvalues --   -0.69007  -0.65619  -0.63042  -0.61847  -0.59096
 Alpha  occ. eigenvalues --   -0.57571  -0.55604  -0.54953  -0.53317  -0.52394
 Alpha  occ. eigenvalues --   -0.50972  -0.50782  -0.49533  -0.49040  -0.47495
 Alpha  occ. eigenvalues --   -0.46286  -0.45135  -0.44737  -0.44027  -0.43353
 Alpha  occ. eigenvalues --   -0.41826  -0.40330  -0.40069  -0.38158  -0.37017
 Alpha  occ. eigenvalues --   -0.35883  -0.33964  -0.32614  -0.32060  -0.30954
 Alpha  occ. eigenvalues --   -0.30369  -0.29471  -0.28494  -0.27527
 Alpha virt. eigenvalues --   -0.05738  -0.01944  -0.01411  -0.00714   0.00195
 Alpha virt. eigenvalues --    0.00883   0.01829   0.02474   0.02610   0.03301
 Alpha virt. eigenvalues --    0.03819   0.04385   0.04590   0.05346   0.05567

 Mulliken charges:
               1
     1  C    0.880128
     2  C    0.999526
     3  C    1.037066
     4  O   -0.677612
     5  H   -0.440363
     6  O   -0.947301
     7  H   -0.407214
     8  N    0.143146
     9  C    0.476260
    10  H   -0.501031
    11  O   -0.629658
    12  C    1.226455
    13  H   -0.488751
    14  O   -0.530220
    15  H   -0.241467
    16  H   -0.214598
    17  H    0.170484
    18  H    0.167857
    19  H    0.181090
    20  C    0.538860
    21  C    1.229185
    22  C    0.396845
    23  N   -0.256307
    24  C    0.626931
    25  H   -0.783394
    26  H   -0.561221
    27  H   -0.082779
    28  O   -0.652836
    29  O   -0.659084
 Sum of Mulliken charges =   0.00000

 Dipole moment (field-independent basis, Debye):
    X=             -2.4844    Y=              2.7658    Z=              0.1450  Tot=              3.7206
 Quadrupole moment (field-independent basis, Debye-Ang):
   XX=           -112.1033   YY=           -107.1150   ZZ=            -92.3328
   XY=              2.7616   XZ=              7.5550   YZ=              1.5737

  Exact polarizability:     194.172      -0.108     129.787       0.233      10.403     112.603
 Approx polarizability:     256.062      -4.466     184.634      -0.488      23.220     169.890

                      1                      2                      3
                      A                      A                      A
 Frequencies --     43.1589                59.4052                72.6190
 Red. masses --      8.5889                 5.1865                 6.4880
 Frc consts  --      0.0094                 0.0108                 0.0202
 IR Inten    --      0.1364                 2.4182                 7.1252

                      4                      5                      6
                      A                      A                      A
 Frequencies --     87.4173               127.0300               151.3943
 Red. masses --      7.1831                 4.5215                 7.5093
 Frc consts  --      0.0323                 0.0430                 0.1014
 IR Inten    --      0.7802                11.0930                 0.4976

                      7                      8                      9
                      A                      A                      A
 Frequencies --    171.3645               197.4896               226.9094
 Red. masses --      9.8261                 5.7167                 2.6809
 Frc consts  --      0.1700                 0.1314                 0.0813
 IR Inten    --      5.0594                 4.7967                 8.1765

                     10                     11                     12
                      A                      A                      A
 Frequencies --    234.7242               271.5351               284.4105
 Red. masses --      2.1258                 3.4895                 3.1486
 Frc consts  --      0.0690                 0.1516                 0.1501
 IR Inten    --      5.7691                17.1184                 3.2347

                     13                     14                     15
                      A                      A                      A
 Frequencies --    312.0565               332.3662               345.5838
 Red. masses --      5.7069                 6.7823                 3.6500
 Frc consts  --      0.3274                 0.4414                 0.2568
 IR Inten    --     10.2527                23.6768                 2.8659

                     16                     17                     18
                      A                      A                      A
 Frequencies --    402.5995               412.1137               463.7182
 Red. masses --      9.7945                 2.8832                 3.4423
 Frc consts  --      0.9354                 0.2885                 0.4361
 IR Inten    --     21.2640                 4.1786                 5.3652

                     19                     20                     21
                      A                      A                      A
 Frequencies --    471.4736               523.0221               550.4579
 Red. masses --      1.1156                 1.2676                 4.6629
 Frc consts  --      0.1461                 0.2043                 0.8324
 IR Inten    --    138.1468                80.7537                23.1340

                     22                     23                     24
                      A                      A                      A
 Frequencies --    559.5171               586.5121               604.7687
 Red. masses --      6.1752                 4.9543                 6.4809
 Frc consts  --      1.1390                 1.0041                 1.3966
 IR Inten    --     15.7542                29.6657                 7.2658

                     25                     26                     27
                      A                      A                      A
 Frequencies --    646.6262               702.8598               719.7019
 Red. masses --      4.4998                 1.2509                 4.6862
 Frc consts  --      1.1085                 0.3641                 1.4301
 IR Inten    --      6.4162                46.3481                23.7772

                     28                     29                     30
                      A                      A                      A
 Frequencies --    726.8998               752.2264               782.8493
 Red. masses --      2.0001                 4.9239                 7.8822
 Frc consts  --      0.6227                 1.6416                 2.8461
 IR Inten    --      0.0665                 6.3412                12.5464

                     31                     32                     33
                      A                      A                      A
 Frequencies --    788.3957               827.7242               871.5350
 Red. masses --      7.9486                 2.3855                 3.3466
 Frc consts  --      2.9109                 0.9629                 1.4977
 IR Inten    --     33.2036                54.2739                18.9794

                     34                     35                     36
                      A                      A                      A
 Frequencies --    891.5828               903.9136               974.4656
 Red. masses --      3.8061                 2.4595                 1.3027
 Frc consts  --      1.7826                 1.1840                 0.7288
 IR Inten    --      0.2158                58.8871                 0.8513

                     37                     38                     39
                      A                      A                      A
 Frequencies --    977.2129               990.0444              1043.7400
 Red. masses --      2.8399                 2.7841                 2.3285
 Frc consts  --      1.5978                 1.6078                 1.4945
 IR Inten    --     19.7414                 2.9236                26.3813

                     40                     41                     42
                      A                      A                      A
 Frequencies --   1066.3318              1085.9371              1111.1125
 Red. masses --      2.6541                 2.7172                 3.0833
 Frc consts  --      1.7781                 1.8879                 2.2427
 IR Inten    --     72.8123                85.2765                80.5837

                     43                     44                     45
                      A                      A                      A
 Frequencies --   1127.8002              1139.7886              1165.0595
 Red. masses --      1.7969                 3.7999                 2.6066
 Frc consts  --      1.3466                 2.9085                 2.0846
 IR Inten    --     18.7106               101.6524                57.5612

                     46                     47                     48
                      A                      A                      A
 Frequencies --   1169.0460              1204.8036              1231.0855
 Red. masses --      3.1122                 1.4890                 2.4159
 Frc consts  --      2.5060                 1.2734                 2.1573
 IR Inten    --    100.8720                53.5255                21.8064

                     49                     50                     51
                      A                      A                      A
 Frequencies --   1235.8723              1249.6356              1259.2913
 Red. masses --      1.2503                 2.1640                 1.4098
 Frc consts  --      1.1252                 1.9910                 1.3172
 IR Inten    --      1.4606                32.3027                79.9027

                     52                     53                     54
                      A                      A                      A
 Frequencies --   1288.0808              1309.2469              1313.3666
 Red. masses --      1.3512                 1.3539                 1.3718
 Frc consts  --      1.3209                 1.3673                 1.3941
 IR Inten    --     57.1850                15.8690                 1.9381

                     55                     56                     57
                      A                      A                      A
 Frequencies --   1336.4879              1343.6225              1363.7701
 Red. masses --      1.3662                 1.3905                 1.4579
 Frc consts  --      1.4378                 1.4790                 1.5975
 IR Inten    --      6.1143                11.6041                 6.7373

                     58                     59                     60
                      A                      A                      A
 Frequencies --   1374.4518              1391.2234              1411.5480
 Red. masses --      1.3024                 1.4499                 2.0726
 Frc consts  --      1.4496                 1.6534                 2.4331
 IR Inten    --     18.9327                47.9737                 0.6831

                     61                     62                     63
                      A                      A                      A
 Frequencies --   1420.8643              1434.6509              1439.1772
 Red. masses --      3.0335                 1.3729                 1.6383
 Frc consts  --      3.6083                 1.6649                 1.9993
 IR Inten    --    136.7428                43.6423                 3.9942

                     64                     65                     66
                      A                      A                      A
 Frequencies --   1451.8136              1478.1348              1494.7164
 Red. masses --      1.6239                 1.0803                 4.6549
 Frc consts  --      2.0167                 1.3906                 6.1274
 IR Inten    --      1.7491                 2.9239               165.7485

                     67                     68                     69
                      A                      A                      A
 Frequencies --   1699.2390              1783.4110              1805.4321
 Red. masses --      6.8484                 8.5259                10.1480
 Frc consts  --     11.6505                15.9769                19.4892
 IR Inten    --     80.1505               980.6749               593.3199

                     70                     71                     72
                      A                      A                      A
 Frequencies --   3023.3331              3039.8667              3069.4666
 Red. masses --      1.0685                 1.0834                 1.0871
 Frc consts  --      5.7541                 5.8989                 6.0344
 IR Inten    --     29.7698                64.1762                31.4133

                     73                     74                     75
                      A                      A                      A
 Frequencies --   3077.9408              3104.0662              3148.7446
 Red. masses --      1.0863                 1.0971                 1.0879
 Frc consts  --      6.0633                 6.2283                 6.3549
 IR Inten    --     19.7324                26.0650                 3.2386

                     76                     77                     78
                      A                      A                      A
 Frequencies --   3231.6065              3274.8137              3625.3469
 Red. masses --      1.0922                 1.0970                 1.0778
 Frc consts  --      6.7201                 6.9318                 8.3462
 IR Inten    --      1.6609                 2.1349                75.2233

                     79                     80                     81
                      A                      A                      A
 Frequencies --   3735.5406              3765.1674              3893.7671
 Red. masses --      1.0652                 1.0670                 1.0671
 Frc consts  --      8.7576                 8.9122                 9.5323
 IR Inten    --    110.1889               234.6690                73.0646

 - Thermochemistry -
 -------------------
 Temperature   298.150 Kelvin.  Pressure   1.00000 Atm.
 Atom     1 has atomic number  6 and mass  12.00000

 Molecular mass:   244.06954 amu.
 Principal axes and moments of inertia in atomic units:
                           1         2         3
     Eigenvalues --  1952.728355906.033396810.08273
           X            0.99996   0.00898   0.00303
           Y           -0.00898   0.99996   0.00188
           Z           -0.00302  -0.00190   0.99999
 This molecule is an asymmetric top.
 Rotational symmetry number  1.
 Warning -- assumption of classical behavior for rotation
           may cause significant error
 Rotational temperatures (Kelvin)      0.04436     0.01467     0.01272
 Rotational constants (GHZ):           0.92422     0.30558     0.26501
 Zero-point vibrational energy     599724.4 (Joules/Mol)
                                  143.33757 (Kcal/Mol)
 Warning -- explicit consideration of  24 degrees of freedom as
           vibrations may cause significant error
 Vibrational temperatures:     62.10    85.47   104.48   125.77   182.77
          (Kelvin)            217.82   246.56   284.14   326.47   337.72
                              390.68   409.20   448.98   478.20   497.22
                              579.25   592.94   667.19   678.35   752.51
                              791.99   805.02   843.86   870.13   930.35
                             1011.26  1035.49  1045.85  1082.29  1126.35
                             1134.33  1190.91  1253.94  1282.79  1300.53
                             1402.04  1405.99  1424.45  1501.71  1534.21
                             1562.42  1598.64  1622.65  1639.90  1676.26
                             1682.00  1733.44  1771.26  1778.14  1797.95
                             1811.84  1853.26  1883.71  1889.64  1922.91
                             1933.17  1962.16  1977.53  2001.66  2030.90
                             2044.31  2064.14  2070.65  2088.84  2126.71
                             2150.56  2444.83  2565.93  2597.61  4349.90
                             4373.69  4416.28  4428.47  4466.06  4530.34
                             4649.56  4711.73  5216.07  5374.61  5417.24
                             5602.26

 Zero-point correction=                           0.228423 (Hartree/Particle)
 Thermal correction to Energy=                    0.243512
 Thermal correction to Enthalpy=                  0.244456
 Thermal correction to Gibbs Free Energy=         0.185968
 Sum of electronic and zero-point Energies=           -909.991466
 Sum of electronic and thermal Energies=              -909.976376
 Sum of electronic and thermal Enthalpies=            -909.975432
 Sum of electronic and thermal Free Energies=         -910.033920

                     E (Thermal)             CV                S
                      KCal/Mol        Cal/Mol-Kelvin    Cal/Mol-Kelvin
 Total                  152.806             57.945            123.099
 Electronic               0.000              0.000              0.000
 Translational            0.889              2.981             42.378
 Rotational               0.889              2.981             32.729
 Vibrational            151.029             51.983             47.992
 Vibration     1          0.595              1.980              5.109
 Vibration     2          0.597              1.974              4.477
 Vibration     3          0.599              1.967              4.081
 Vibration     4          0.601              1.958              3.717
 Vibration     5          0.611              1.926              2.991
 Vibration     6          0.619              1.901              2.655
 Vibration     7          0.626              1.878              2.420
 Vibration     8          0.637              1.843              2.156
 Vibration     9          0.651              1.800              1.903
 Vibration    10          0.655              1.788              1.843
 Vibration    11          0.675              1.726              1.586
 Vibration    12          0.683              1.703              1.507
 Vibration    13          0.700              1.651              1.351
 Vibration    14          0.714              1.611              1.249
 Vibration    15          0.724              1.584              1.186
 Vibration    16          0.768              1.465              0.953
 Vibration    17          0.776              1.444              0.919
 Vibration    18          0.821              1.331              0.755
 Vibration    19          0.828              1.313              0.733
 Vibration    20          0.878              1.199              0.603
 Vibration    21          0.906              1.139              0.543
 Vibration    22          0.915              1.119              0.525
 Vibration    23          0.944              1.061              0.473
 Vibration    24          0.963              1.022              0.442

 Optimization completed.
    -- Stationary point found.
 Normal termination of Gaussian 16 at Thu Oct 17 07:48:33 2024.
