 Gaussian 16, Revision C.01,
 Gaussian 16:  EM64L-G16RevC.01  3-Jul-2019

 ------------------------------------------------------
 # PBE1PBE/aug-cc-pVDZ opt freq EmpiricalDispersion=GD3
 ------------------------------------------------------

 ----
 blah
 ----
 Symbolic Z-matrix:
 Charge = -1 Multiplicity = 1

 SCF Done:  E(RPBE1PBE) =  -909.656364177     A.U. after   17 cycles
 SCF Done:  E(RPBE1PBE) =  -909.665363011     A.U. after   13 cycles
 SCF Done:  E(RPBE1PBE) =  -909.654995681     A.U. after   14 cycles
 SCF Done:  E(RPBE1PBE) =  -909.666995933     A.U. after   13 cycles
 SCF Done:  E(RPBE1PBE) =  -909.668300509     A.U. after   13 cycles
 SCF Done:  E(RPBE1PBE) =  -909.671212368     A.U. after   12 cycles
 SCF Done:  E(RPBE1PBE) =  -909.671444985     A.U. after   12 cycles
 SCF Done:  E(RPBE1PBE) =  -909.670599984     A.U. after   12 cycles
 SCF Done:  E(RPBE1PBE) =  -909.671586313     A.U. after   11 cycles
 SCF Done:  E(RPBE1PBE) =  -909.671602650     A.U. after   11 cycles
 SCF Done:  E(RPBE1PBE) =  -909.671632995     A.U. after   10 cycles
 SCF Done:  E(RPBE1PBE) =  -909.671635761     A.U. after    9 cycles
 SCF Done:  E(RPBE1PBE) =  -909.671642203     A.U. after    9 cycles
 SCF Done:  E(RPBE1PBE) =  -909.671644532     A.U. after    9 cycles
 SCF Done:  E(RPBE1PBE) =  -909.671645327     A.U. after    8 cycles
 SCF Done:  E(RPBE1PBE) =  -909.671645926     A.U. after    8 cycles
 SCF Done:  E(RPBE1PBE) =  -909.671646095     A.U. after    8 cycles
 Optimization completed.
    -- Stationary point found.
 Normal termination of Gaussian 16 at Thu Oct 24 09:46:45 2024.

 ----------------------------------------------------------------------
 #N Geom=AllCheck Guess=TCheck SCRF=Check GenChk RPBE1PBE/Aug-CC-pVDZ F
 req
 ----------------------------------------------------------------------

 Structure from the checkpoint file:  "/scr/Gau-48654.chk"
 ----
 blah
 ----
 Charge = -1 Multiplicity = 1

                         Standard orientation:
 ---------------------------------------------------------------------
 Center     Atomic      Atomic             Coordinates (Angstroms)
 Number     Number       Type             X           Y           Z
 ---------------------------------------------------------------------
      1          6           0        2.243718   -0.155534   -0.623519
      2          6           0        1.204773   -1.287235   -0.608964
      3          6           0        0.315913   -0.973090    0.606825
      4          8           0        1.844631   -2.536739   -0.391323
      5          1           0        0.607356   -1.315686   -1.529718
      6          8           0        0.985674    0.011063    1.379767
      7          1           0        0.244514   -1.898454    1.197617
      8          7           0       -1.037192   -0.572679    0.325751
      9          6           0        2.238514    0.367318    0.812883
     10          1           0        1.934481    0.628165   -1.318559
     11          8           0        3.555953   -0.633987   -0.947931
     12          6           0        2.432523    1.869705    0.937338
     13          1           0        3.051410   -0.140764    1.365901
     14          8           0        1.663267    2.636311    0.054039
     15          1           0        3.496799    2.091955    0.745429
     16          1           0        2.224699    2.137283    1.991135
     17          1           0        3.702851   -0.463802   -1.881534
     18          1           0        2.775832   -2.384247   -0.611247
     19          1           0        0.844359    2.144007   -0.193480
     20          6           0       -2.081723   -1.230289    0.920633
     21          6           0       -3.356946   -0.869334    0.679882
     22          6           0       -3.625967    0.248990   -0.235881
     23          7           0       -2.549034    0.904121   -0.779564
     24          6           0       -1.300868    0.540896   -0.521337
     25          1           0       -1.807087   -2.052349    1.583836
     26          1           0       -4.192105   -1.389732    1.144268
     27          8           0       -4.793908    0.575209   -0.492225
     28          8           0       -0.280511    1.105013   -0.992843
 ---------------------------------------------------------------------

 SCF Done:  E(RPBE1PBE) =  -909.671646095     A.U. after    1 cycles

 The electronic state is 1-A.
 Alpha  occ. eigenvalues --  -19.16361 -19.13025 -19.12981 -19.08932 -19.04503
 Alpha  occ. eigenvalues --  -19.02465 -14.31997 -14.21844 -10.21583 -10.21064
 Alpha  occ. eigenvalues --  -10.18920 -10.18529 -10.18372 -10.17193 -10.16888
 Alpha  occ. eigenvalues --  -10.16334 -10.10099  -1.00380  -0.98247  -0.95486
 Alpha  occ. eigenvalues --   -0.93500  -0.92441  -0.89215  -0.85605  -0.76553
 Alpha  occ. eigenvalues --   -0.69914  -0.68915  -0.65343  -0.59014  -0.54832
 Alpha  occ. eigenvalues --   -0.53377  -0.51015  -0.49084  -0.46407  -0.44141
 Alpha  occ. eigenvalues --   -0.43895  -0.41599  -0.40249  -0.38573  -0.38275
 Alpha  occ. eigenvalues --   -0.37249  -0.34416  -0.33910  -0.33049  -0.32100
 Alpha  occ. eigenvalues --   -0.31576  -0.30032  -0.29916  -0.28122  -0.27284
 Alpha  occ. eigenvalues --   -0.26952  -0.25019  -0.24599  -0.24225  -0.22906
 Alpha  occ. eigenvalues --   -0.20663  -0.19400  -0.18300  -0.16293  -0.14848
 Alpha  occ. eigenvalues --   -0.12855  -0.11383  -0.10496  -0.10351
 Alpha virt. eigenvalues --    0.06576   0.08536   0.09079   0.09941   0.11139
 Alpha virt. eigenvalues --    0.11325   0.11546   0.11893   0.12166   0.13037
 Alpha virt. eigenvalues --    0.13993   0.14572   0.15237   0.15352   0.15826

 Mulliken charges:
               1
     1  C    0.931950
     2  C    0.967670
     3  C    1.067049
     4  O   -0.693610
     5  H   -0.431510
     6  O   -0.941484
     7  H   -0.377498
     8  N    0.161816
     9  C    0.484296
    10  H   -0.542376
    11  O   -0.650552
    12  C    1.184293
    13  H   -0.468472
    14  O   -0.577337
    15  H   -0.256498
    16  H   -0.227730
    17  H    0.149974
    18  H    0.150102
    19  H    0.241978
    20  C    0.575831
    21  C    0.907871
    22  C    0.490900
    23  N   -0.509488
    24  C    0.403046
    25  H   -0.821122
    26  H   -0.572022
    27  O   -0.790694
    28  O   -0.856382
 Sum of Mulliken charges =  -1.00000

 Dipole moment (field-independent basis, Debye):
    X=             10.5637    Y=             -5.5883    Z=              2.0048  Tot=             12.1177
 Quadrupole moment (field-independent basis, Debye-Ang):
   XX=           -158.7204   YY=           -122.5885   ZZ=           -102.3489
   XY=             10.5975   XZ=            -15.0668   YZ=              4.0647

  Exact polarizability:     213.801       0.973     138.943       0.813     -10.446     121.360
 Approx polarizability:     282.833      -3.667     194.741       2.664     -21.911     181.533

                      1                      2                      3
                      A                      A                      A
 Frequencies --     41.8927                66.7777                80.9026
 Red. masses --      7.9057                 5.6595                 6.5916
 Frc consts  --      0.0082                 0.0149                 0.0254
 IR Inten    --      0.7865                 3.9948                 6.9633

                      4                      5                      6
                      A                      A                      A
 Frequencies --    113.3734               120.6847               157.4670
 Red. masses --      4.7361                 7.5319                 7.4891
 Frc consts  --      0.0359                 0.0646                 0.1094
 IR Inten    --      7.9264                12.7675                 6.3845

                      7                      8                      9
                      A                      A                      A
 Frequencies --    181.9895               219.7440               237.7523
 Red. masses --      7.8051                 6.2791                 3.4285
 Frc consts  --      0.1523                 0.1786                 0.1142
 IR Inten    --      1.6278                 4.5721                 6.7305

                     10                     11                     12
                      A                      A                      A
 Frequencies --    246.2723               283.6621               287.7495
 Red. masses --      1.7254                 5.7800                 2.8309
 Frc consts  --      0.0617                 0.2740                 0.1381
 IR Inten    --      8.0096                 2.3150                27.4679

                     13                     14                     15
                      A                      A                      A
 Frequencies --    323.0122               335.6982               345.8856
 Red. masses --      6.3411                 7.2542                 3.8148
 Frc consts  --      0.3898                 0.4817                 0.2689
 IR Inten    --      7.7341                14.7407                 3.9487

                     16                     17                     18
                      A                      A                      A
 Frequencies --    414.7370               429.7716               461.7529
 Red. masses --      3.1461                 9.8464                 4.3985
 Frc consts  --      0.3188                 1.0715                 0.5526
 IR Inten    --      3.0642                11.4592                 6.5150

                     19                     20                     21
                      A                      A                      A
 Frequencies --    540.9535               556.8963               568.6924
 Red. masses --      1.2124                 5.3955                 7.2452
 Frc consts  --      0.2090                 0.9859                 1.3806
 IR Inten    --     84.6196                 9.4931                 6.0423

                     22                     23                     24
                      A                      A                      A
 Frequencies --    599.6992               607.7660               656.4364
 Red. masses --      6.1000                 5.7154                 4.4404
 Frc consts  --      1.2926                 1.2438                 1.1273
 IR Inten    --     45.7959                12.3835                 2.4242

                     25                     26                     27
                      A                      A                      A
 Frequencies --    721.6209               727.7708               751.7077
 Red. masses --      1.7591                 4.2906                 1.2726
 Frc consts  --      0.5397                 1.3389                 0.4237
 IR Inten    --      4.9130                 3.8055                69.8594

                     28                     29                     30
                      A                      A                      A
 Frequencies --    755.5274               777.9077               806.5480
 Red. masses --      5.7692                 6.5811                 5.0052
 Frc consts  --      1.9403                 2.3464                 1.9184
 IR Inten    --      6.2264                22.8027                46.3161

                     31                     32                     33
                      A                      A                      A
 Frequencies --    832.9558               865.7689               889.2375
 Red. masses --      3.4696                 4.2865                 4.4143
 Frc consts  --      1.4183                 1.8930                 2.0566
 IR Inten    --     32.5924                26.0208                 1.1898

                     34                     35                     36
                      A                      A                      A
 Frequencies --    903.2601               947.6289               968.5847
 Red. masses --      2.3539                 1.2922                 3.3453
 Frc consts  --      1.1315                 0.6837                 1.8491
 IR Inten    --     27.3388                 0.5004                56.4277

                     37                     38                     39
                      A                      A                      A
 Frequencies --    991.3941              1034.3423              1059.1069
 Red. masses --      3.9411                 2.3968                 2.3991
 Frc consts  --      2.2823                 1.5108                 1.5856
 IR Inten    --      8.6669                71.0899                42.2869

                     40                     41                     42
                      A                      A                      A
 Frequencies --   1066.5698              1094.7719              1115.9609
 Red. masses --      3.7387                 2.4900                 1.6044
 Frc consts  --      2.5058                 1.7583                 1.1772
 IR Inten    --    159.0351                29.7382                32.2300

                     43                     44                     45
                      A                      A                      A
 Frequencies --   1127.3379              1156.9441              1179.2437
 Red. masses --      3.8689                 2.6846                 3.0556
 Frc consts  --      2.8970                 2.1172                 2.5035
 IR Inten    --     55.2976                57.3444               116.0493

                     46                     47                     48
                      A                      A                      A
 Frequencies --   1208.1837              1239.4879              1249.8877
 Red. masses --      1.4810                 1.3464                 2.2515
 Frc consts  --      1.2737                 1.2188                 2.0724
 IR Inten    --     30.6475                 9.9555                63.7350

                     49                     50                     51
                      A                      A                      A
 Frequencies --   1271.5766              1274.7217              1303.7414
 Red. masses --      1.2919                 1.2844                 1.4707
 Frc consts  --      1.2307                 1.2297                 1.4728
 IR Inten    --     52.4204                 7.5610                34.7502

                     52                     53                     54
                      A                      A                      A
 Frequencies --   1310.0424              1316.3533              1342.8497
 Red. masses --      1.3833                 2.1538                 1.5876
 Frc consts  --      1.3987                 2.1989                 1.6868
 IR Inten    --      6.4074               129.7388                48.0155

                     55                     56                     57
                      A                      A                      A
 Frequencies --   1347.4625              1354.3934              1360.4168
 Red. masses --      1.6778                 2.1426                 2.3481
 Frc consts  --      1.7948                 2.3157                 2.5604
 IR Inten    --     59.5317                39.6479                 2.4512

                     58                     59                     60
                      A                      A                      A
 Frequencies --   1367.0648              1402.1535              1433.2995
 Red. masses --      1.3055                 1.4323                 1.6142
 Frc consts  --      1.4375                 1.6592                 1.9538
 IR Inten    --      3.5891               131.3674                 0.6927

                     61                     62                     63
                      A                      A                      A
 Frequencies --   1439.4042              1473.8312              1476.2102
 Red. masses --      1.5664                 1.2714                 1.0852
 Frc consts  --      1.9122                 1.6272                 1.3933
 IR Inten    --     20.1010                32.5694                 7.9665

                     64                     65                     66
                      A                      A                      A
 Frequencies --   1483.4709              1615.6114              1705.8381
 Red. masses --      4.1949                 9.5012                11.2500
 Frc consts  --      5.4392                14.6118                19.2877
 IR Inten    --     73.0436              1149.9295               146.6586

                     67                     68                     69
                      A                      A                      A
 Frequencies --   1720.3296              2980.5792              2998.3417
 Red. masses --      7.7792                 1.0664                 1.0821
 Frc consts  --     13.5647                 5.5819                 5.7318
 IR Inten    --    991.0606                50.4237               139.9378

                     70                     71                     72
                      A                      A                      A
 Frequencies --   3038.2289              3062.5750              3093.3588
 Red. masses --      1.0968                 1.0854                 1.0877
 Frc consts  --      5.9649                 5.9980                 6.1320
 IR Inten    --     94.4036                33.0871                23.9115

                     73                     74                     75
                      A                      A                      A
 Frequencies --   3168.1481              3188.2901              3237.1444
 Red. masses --      1.0886                 1.0895                 1.0970
 Frc consts  --      6.4379                 6.5254                 6.7728
 IR Inten    --      2.3741                13.4390                17.9479

                     76                     77                     78
                      A                      A                      A
 Frequencies --   3372.2849              3735.3093              3895.2584
 Red. masses --      1.0727                 1.0651                 1.0667
 Frc consts  --      7.1878                 8.7557                 9.5362
 IR Inten    --   1034.1697               104.3973                45.6004

 - Thermochemistry -
 -------------------
 Temperature   298.150 Kelvin.  Pressure   1.00000 Atm.
 Atom     1 has atomic number  6 and mass  12.00000

 Molecular mass:   243.06171 amu.
 Principal axes and moments of inertia in atomic units:
                           1         2         3
     Eigenvalues --  1955.829705674.290056570.61466
           X            0.99988   0.01381  -0.00634
           Y           -0.01377   0.99989   0.00590
           Z            0.00642  -0.00581   0.99996
 This molecule is an asymmetric top.
 Rotational symmetry number  1.
 Warning -- assumption of classical behavior for rotation
           may cause significant error
 Rotational temperatures (Kelvin)      0.04429     0.01526     0.01318
 Rotational constants (GHZ):           0.92275     0.31806     0.27467
 Zero-point vibrational energy     562960.3 (Joules/Mol)
                                  134.55073 (Kcal/Mol)
 Warning -- explicit consideration of  23 degrees of freedom as
           vibrations may cause significant error
 Vibrational temperatures:     60.27    96.08   116.40   163.12   173.64
          (Kelvin)            226.56   261.84   316.16   342.07   354.33
                              408.13   414.01   464.74   482.99   497.65
                              596.71   618.35   664.36   778.31   801.25
                              818.22   862.83   874.44   944.47  1038.25
                             1047.10  1081.54  1087.04  1119.24  1160.44
                             1198.44  1245.65  1279.41  1299.59  1363.43
                             1393.58  1426.39  1488.19  1523.82  1534.56
                             1575.13  1605.62  1621.99  1664.58  1696.67
                             1738.31  1783.35  1798.31  1829.52  1834.04
                             1875.79  1884.86  1893.94  1932.06  1938.70
                             1948.67  1957.34  1966.90  2017.39  2062.20
                             2070.98  2120.51  2123.94  2134.38  2324.50
                             2454.32  2475.17  4288.39  4313.94  4371.33
                             4406.36  4450.65  4558.26  4587.24  4657.53
                             4851.97  5374.28  5604.41

 Zero-point correction=                           0.214420 (Hartree/Particle)
 Thermal correction to Energy=                    0.228985
 Thermal correction to Enthalpy=                  0.229929
 Thermal correction to Gibbs Free Energy=         0.172673
 Sum of electronic and zero-point Energies=           -909.457226
 Sum of electronic and thermal Energies=              -909.442661
 Sum of electronic and thermal Enthalpies=            -909.441717
 Sum of electronic and thermal Free Energies=         -909.498973

                     E (Thermal)             CV                S
                      KCal/Mol        Cal/Mol-Kelvin    Cal/Mol-Kelvin
 Total                  143.690             56.167            120.505
 Electronic               0.000              0.000              0.000
 Translational            0.889              2.981             42.365
 Rotational               0.889              2.981             32.655
 Vibrational            141.913             50.205             45.484
 Vibration     1          0.595              1.980              5.168
 Vibration     2          0.598              1.970              4.246
 Vibration     3          0.600              1.962              3.869
 Vibration     4          0.607              1.938              3.210
 Vibration     5          0.609              1.932              3.089
 Vibration     6          0.621              1.894              2.580
 Vibration     7          0.630              1.864              2.308
 Vibration     8          0.647              1.811              1.961
 Vibration     9          0.656              1.783              1.820
 Vibration    10          0.661              1.769              1.757
 Vibration    11          0.682              1.704              1.511
 Vibration    12          0.685              1.696              1.487
 Vibration    13          0.708              1.629              1.295
 Vibration    14          0.717              1.604              1.233
 Vibration    15          0.724              1.584              1.185
 Vibration    16          0.778              1.438              0.910
 Vibration    17          0.791              1.405              0.859
 Vibration    18          0.819              1.335              0.761
 Vibration    19          0.896              1.160              0.563
 Vibration    20          0.912              1.125              0.530
 Vibration    21          0.925              1.099              0.507
 Vibration    22          0.958              1.032              0.450
 Vibration    23          0.967              1.015              0.436

                           ! Non-Optimized Parameters !
 Normal termination of Gaussian 16 at Thu Oct 24 10:02:01 2024.
