 Gaussian 16, Revision C.01,
 Gaussian 16:  EM64L-G16RevC.01  3-Jul-2019

 ------------------------------------------------------
 # PBE1PBE/aug-cc-pVDZ opt freq EmpiricalDispersion=GD3
 ------------------------------------------------------

 ----
 blah
 ----
 Symbolic Z-matrix:
 Charge = -1 Multiplicity = 1

 SCF Done:  E(RPBE1PBE) =  -909.659140142     A.U. after   17 cycles
 SCF Done:  E(RPBE1PBE) =  -909.671398057     A.U. after   12 cycles
 SCF Done:  E(RPBE1PBE) =  -909.672980332     A.U. after   12 cycles
 SCF Done:  E(RPBE1PBE) =  -909.673171926     A.U. after   12 cycles
 SCF Done:  E(RPBE1PBE) =  -909.674159106     A.U. after   12 cycles
 SCF Done:  E(RPBE1PBE) =  -909.675750832     A.U. after   12 cycles
 SCF Done:  E(RPBE1PBE) =  -909.630963299     A.U. after   14 cycles
 SCF Done:  E(RPBE1PBE) =  -909.679170367     A.U. after   13 cycles
 SCF Done:  E(RPBE1PBE) =  -909.679852181     A.U. after   15 cycles
 SCF Done:  E(RPBE1PBE) =  -909.679366167     A.U. after   13 cycles
 SCF Done:  E(RPBE1PBE) =  -909.690270717     A.U. after   15 cycles
 SCF Done:  E(RPBE1PBE) =  -909.693505009     A.U. after   12 cycles
 SCF Done:  E(RPBE1PBE) =  -909.693924801     A.U. after    9 cycles
 SCF Done:  E(RPBE1PBE) =  -909.694020398     A.U. after   12 cycles
 SCF Done:  E(RPBE1PBE) =  -909.694057697     A.U. after   12 cycles
 SCF Done:  E(RPBE1PBE) =  -909.694116870     A.U. after   11 cycles
 SCF Done:  E(RPBE1PBE) =  -909.694119835     A.U. after   10 cycles
 SCF Done:  E(RPBE1PBE) =  -909.694120462     A.U. after    8 cycles
 SCF Done:  E(RPBE1PBE) =  -909.694120562     A.U. after    8 cycles
 Optimization completed.
    -- Stationary point found.
 Normal termination of Gaussian 16 at Sun Oct 27 04:48:49 2024.

 ----------------------------------------------------------------------
 #N Geom=AllCheck Guess=TCheck SCRF=Check GenChk RPBE1PBE/Aug-CC-pVDZ F
 req
 ----------------------------------------------------------------------

 Structure from the checkpoint file:  "/scr/Gau-61964.chk"
 ----
 blah
 ----
 Charge = -1 Multiplicity = 1

                         Standard orientation:
 ---------------------------------------------------------------------
 Center     Atomic      Atomic             Coordinates (Angstroms)
 Number     Number       Type             X           Y           Z
 ---------------------------------------------------------------------
      1          6           0       -2.705125   -0.626609    0.194852
      2          6           0       -1.247529   -0.918977    0.586424
      3          6           0       -0.474523   -0.252334   -0.563545
      4          8           0       -1.043166   -2.295349    0.686086
      5          1           0       -1.001664   -0.391584    1.526124
      6          8           0       -1.209279    0.946883   -0.806616
      7          1           0       -0.554214   -0.924121   -1.439594
      8          6           0        0.963794    0.050335   -0.301080
      9          6           0       -2.603027    0.670209   -0.623746
     10          1           0       -3.345648   -0.489750    1.081213
     11          8           0       -3.198916   -1.681117   -0.604709
     12          6           0       -3.200096    1.899862    0.031786
     13          1           0       -3.085051    0.496504   -1.600649
     14          8           0       -2.562502    2.199341    1.257900
     15          1           0       -4.263827    1.725759    0.246213
     16          1           0       -3.124022    2.753106   -0.666713
     17          1           0       -2.603380   -2.422706   -0.387541
     18          1           0       -0.063938   -2.419215    0.444779
     19          1           0       -1.617316    2.088290    1.087580
     20          6           0        1.477435    1.300195   -0.350230
     21          7           0        2.807966    1.491439   -0.144614
     22          6           0        3.713055    0.427669    0.073648
     23          7           0        3.208935   -0.824155    0.129044
     24          6           0        1.893189   -1.058165   -0.021873
     25          1           0        0.870336    2.178855   -0.564355
     26          1           0        3.223099    2.409093   -0.187628
     27          8           0        4.904215    0.734766    0.202358
     28          8           0        1.427681   -2.233066    0.066499
 ---------------------------------------------------------------------

 SCF Done:  E(RPBE1PBE) =  -909.694120562     A.U. after    1 cycles

 The electronic state is 1-A.
 Alpha  occ. eigenvalues --  -19.14439 -19.14001 -19.11741 -19.09760 -19.04994
 Alpha  occ. eigenvalues --  -19.03800 -14.31767 -14.22746 -10.21030 -10.19448
 Alpha  occ. eigenvalues --  -10.19086 -10.19028 -10.18197 -10.18120 -10.17423
 Alpha  occ. eigenvalues --  -10.17047 -10.11806  -0.99920  -0.96891  -0.95757
 Alpha  occ. eigenvalues --   -0.93820  -0.92784  -0.90525  -0.85062  -0.76661
 Alpha  occ. eigenvalues --   -0.71827  -0.69051  -0.65694  -0.59686  -0.54652
 Alpha  occ. eigenvalues --   -0.52369  -0.50880  -0.50548  -0.46240  -0.43662
 Alpha  occ. eigenvalues --   -0.42891  -0.42311  -0.41919  -0.40397  -0.38535
 Alpha  occ. eigenvalues --   -0.36814  -0.35488  -0.34904  -0.33708  -0.32519
 Alpha  occ. eigenvalues --   -0.32224  -0.30232  -0.30132  -0.28879  -0.27945
 Alpha  occ. eigenvalues --   -0.26893  -0.26144  -0.25529  -0.23034  -0.22575
 Alpha  occ. eigenvalues --   -0.20693  -0.18915  -0.18460  -0.17365  -0.15311
 Alpha  occ. eigenvalues --   -0.13249  -0.12656  -0.12093  -0.10724
 Alpha virt. eigenvalues --    0.07400   0.08391   0.09128   0.09760   0.10565
 Alpha virt. eigenvalues --    0.10688   0.11638   0.12111   0.12300   0.12743
 Alpha virt. eigenvalues --    0.13868   0.15043   0.15415   0.15573   0.15705

 Mulliken charges:
               1
     1  C    0.909073
     2  C    0.767891
     3  C    0.687743
     4  O   -0.765554
     5  H   -0.534614
     6  O   -0.804586
     7  H   -0.403808
     8  C    0.620276
     9  C    0.976757
    10  H   -0.399565
    11  O   -0.724600
    12  C    1.149287
    13  H   -0.556227
    14  O   -0.548222
    15  H   -0.263415
    16  H   -0.270508
    17  H    0.189712
    18  H    0.309705
    19  H    0.193111
    20  C    1.251502
    21  N   -0.563078
    22  C    0.660420
    23  N   -0.638078
    24  C    0.386777
    25  H   -0.778960
    26  H   -0.128962
    27  O   -0.728671
    28  O   -0.993405
 Sum of Mulliken charges =  -1.00000

 Dipole moment (field-independent basis, Debye):
    X=             -9.1576    Y=              5.8039    Z=             -1.7850  Tot=             10.9879
 Quadrupole moment (field-independent basis, Debye-Ang):
   XX=           -175.7657   YY=           -117.4334   ZZ=           -105.7827
   XY=              5.6012   XZ=             -1.7647   YZ=             -2.0196

  Exact polarizability:     198.843      11.416     159.327       5.550      -1.712     107.258
 Approx polarizability:     248.358      27.196     244.309       8.433      -1.553     164.007

                      1                      2                      3
                      A                      A                      A
 Frequencies --     32.7283                50.3003                68.2671
 Red. masses --      6.7628                 8.6992                 6.9840
 Frc consts  --      0.0043                 0.0130                 0.0192
 IR Inten    --      3.2055                 0.2137                 7.8361

                      4                      5                      6
                      A                      A                      A
 Frequencies --     83.5154               122.1478               164.9556
 Red. masses --      9.1638                 4.9239                 6.1768
 Frc consts  --      0.0377                 0.0433                 0.0990
 IR Inten    --      1.5110                 2.2825                11.2348

                      7                      8                      9
                      A                      A                      A
 Frequencies --    186.2658               201.2291               244.6167
 Red. masses --      6.7051                 9.4772                 4.7433
 Frc consts  --      0.1371                 0.2261                 0.1672
 IR Inten    --      0.8334                 0.0924                11.1072

                     10                     11                     12
                      A                      A                      A
 Frequencies --    259.9864               289.0578               325.7941
 Red. masses --      5.5012                 7.3330                 3.4310
 Frc consts  --      0.2191                 0.3610                 0.2146
 IR Inten    --     27.6138                 6.7740                 3.9642

                     13                     14                     15
                      A                      A                      A
 Frequencies --    349.9492               372.1455               393.9355
 Red. masses --      6.1561                 5.5593                 3.1085
 Frc consts  --      0.4442                 0.4536                 0.2842
 IR Inten    --     10.5044                 8.1056                15.0276

                     16                     17                     18
                      A                      A                      A
 Frequencies --    451.5266               457.1003               497.8120
 Red. masses --      4.7325                 4.8712                 1.1851
 Frc consts  --      0.5685                 0.5997                 0.1730
 IR Inten    --     28.6469                17.1084                76.2117

                     19                     20                     21
                      A                      A                      A
 Frequencies --    545.6102               561.8802               577.2215
 Red. masses --      5.4499                 6.5717                 7.4603
 Frc consts  --      0.9559                 1.2224                 1.4645
 IR Inten    --     18.7751                 1.8495                16.3854

                     22                     23                     24
                      A                      A                      A
 Frequencies --    583.7248               589.1252               629.1477
 Red. masses --      1.2046                 1.1188                 5.6808
 Frc consts  --      0.2418                 0.2288                 1.3248
 IR Inten    --     52.4368                87.0541                31.4774

                     25                     26                     27
                      A                      A                      A
 Frequencies --    661.1277               729.1562               732.9468
 Red. masses --      5.9117                 5.3454                 5.0226
 Frc consts  --      1.5224                 1.6744                 1.5897
 IR Inten    --      4.4215                25.7934                12.3890

                     28                     29                     30
                      A                      A                      A
 Frequencies --    787.6562               792.8306               806.7896
 Red. masses --      9.0666                11.1704                 8.1983
 Frc consts  --      3.3141                 4.1369                 3.1441
 IR Inten    --      1.3379                 9.9947                11.6084

                     31                     32                     33
                      A                      A                      A
 Frequencies --    881.6231               910.0932               917.2465
 Red. masses --      2.9903                 3.2773                 1.6799
 Frc consts  --      1.3694                 1.5993                 0.8328
 IR Inten    --      4.3828                 0.9464                14.8452

                     34                     35                     36
                      A                      A                      A
 Frequencies --    931.3320               941.1604               980.1302
 Red. masses --      2.4233                 1.9744                 2.3433
 Frc consts  --      1.2384                 1.0304                 1.3263
 IR Inten    --     26.9297                 7.2338                17.3181

                     37                     38                     39
                      A                      A                      A
 Frequencies --    989.6229              1040.3117              1072.0902
 Red. masses --      1.4814                 3.0615                 5.1169
 Frc consts  --      0.8548                 1.9521                 3.4652
 IR Inten    --     46.9559                18.5488                94.1732

                     40                     41                     42
                      A                      A                      A
 Frequencies --   1087.1807              1105.2345              1132.0058
 Red. masses --      3.8069                 1.7629                 3.3142
 Frc consts  --      2.6511                 1.2688                 2.5022
 IR Inten    --     14.8943                52.8241                79.3957

                     43                     44                     45
                      A                      A                      A
 Frequencies --   1158.8851              1164.5970              1173.3593
 Red. masses --      2.7733                 2.0796                 2.5852
 Frc consts  --      2.1945                 1.6618                 2.0970
 IR Inten    --     69.0564                28.3336                89.7265

                     46                     47                     48
                      A                      A                      A
 Frequencies --   1218.7631              1225.9608              1230.1428
 Red. masses --      1.2635                 1.3793                 1.8813
 Frc consts  --      1.1057                 1.2214                 1.6773
 IR Inten    --     26.1803                29.2061                34.8273

                     49                     50                     51
                      A                      A                      A
 Frequencies --   1274.7101              1294.7843              1301.0427
 Red. masses --      1.2679                 1.4354                 1.2944
 Frc consts  --      1.2138                 1.4178                 1.2909
 IR Inten    --     26.6384                11.5459                 4.2793

                     52                     53                     54
                      A                      A                      A
 Frequencies --   1326.4065              1335.1959              1341.5730
 Red. masses --      2.1232                 1.4786                 2.9786
 Frc consts  --      2.2009                 1.5531                 3.1585
 IR Inten    --      6.3526                 1.5373               136.7200

                     55                     56                     57
                      A                      A                      A
 Frequencies --   1348.1696              1368.5147              1387.1326
 Red. masses --      1.3203                 1.6060                 1.9712
 Frc consts  --      1.4138                 1.7722                 2.2347
 IR Inten    --      5.7587                32.9496                 6.0610

                     58                     59                     60
                      A                      A                      A
 Frequencies --   1390.1541              1405.2762              1424.5608
 Red. masses --      1.7367                 2.0219                 1.3845
 Frc consts  --      1.9775                 2.3526                 1.6554
 IR Inten    --     79.2757                41.8765               104.3690

                     61                     62                     63
                      A                      A                      A
 Frequencies --   1434.1413              1479.6326              1504.7077
 Red. masses --      1.6831                 1.0899                 4.9653
 Frc consts  --      2.0396                 1.4058                 6.6237
 IR Inten    --    123.1924                 2.7885               214.5004

                     64                     65                     66
                      A                      A                      A
 Frequencies --   1525.3010              1605.6875              1724.4800
 Red. masses --      1.9427                 2.4092                 7.0330
 Frc consts  --      2.6630                 3.6598                12.3228
 IR Inten    --    776.6007               220.3996               160.5055

                     67                     68                     69
                      A                      A                      A
 Frequencies --   1743.8106              2839.3696              2990.2740
 Red. masses --      8.7882                 1.0787                 1.0810
 Frc consts  --     15.7453                 5.1240                 5.6948
 IR Inten    --    928.8619              1633.4766                11.4179

                     70                     71                     72
                      A                      A                      A
 Frequencies --   3005.1890              3009.7065              3039.9794
 Red. masses --      1.0688                 1.0851                 1.0858
 Frc consts  --      5.6870                 5.7914                 5.9120
 IR Inten    --     61.6449                59.6503                56.8988

                     73                     74                     75
                      A                      A                      A
 Frequencies --   3042.1528              3103.2325              3216.7531
 Red. masses --      1.0862                 1.0952                 1.0935
 Frc consts  --      5.9230                 6.2142                 6.6663
 IR Inten    --     78.1619                39.5106                 8.4178

                     76                     77                     78
                      A                      A                      A
 Frequencies --   3626.2065              3673.5969              3791.3882
 Red. masses --      1.0648                 1.0784                 1.0653
 Frc consts  --      8.2495                 8.5749                 9.0223
 IR Inten    --    124.5815                41.6238                73.6739

 - Thermochemistry -
 -------------------
 Temperature   298.150 Kelvin.  Pressure   1.00000 Atm.
 Atom     1 has atomic number  6 and mass  12.00000

 Molecular mass:   243.06171 amu.
 Principal axes and moments of inertia in atomic units:
                           1         2         3
     Eigenvalues --  2021.356856025.491517499.41796
           X            1.00000  -0.00223  -0.00014
           Y            0.00223   0.99999  -0.00373
           Z            0.00015   0.00373   0.99999
 This molecule is an asymmetric top.
 Rotational symmetry number  1.
 Warning -- assumption of classical behavior for rotation
           may cause significant error
 Rotational temperatures (Kelvin)      0.04285     0.01437     0.01155
 Rotational constants (GHZ):           0.89284     0.29952     0.24065
 Zero-point vibrational energy     563808.5 (Joules/Mol)
                                  134.75346 (Kcal/Mol)
 Warning -- explicit consideration of  23 degrees of freedom as
           vibrations may cause significant error
 Vibrational temperatures:     47.09    72.37    98.22   120.16   175.74
          (Kelvin)            237.33   267.99   289.52   351.95   374.06
                              415.89   468.74   503.50   535.43   566.79
                              649.65   657.67   716.24   785.01   808.42
                              830.49   839.85   847.62   905.20   951.22
                             1049.09  1054.55  1133.26  1140.71  1160.79
                             1268.46  1309.42  1319.71  1339.98  1354.12
                             1410.19  1423.85  1496.78  1542.50  1564.21
                             1590.19  1628.70  1667.38  1675.60  1688.20
                             1753.53  1763.88  1769.90  1834.02  1862.91
                             1871.91  1908.40  1921.05  1930.22  1939.72
                             1968.99  1995.77  2000.12  2021.88  2049.63
                             2063.41  2128.86  2164.94  2194.57  2310.23
                             2481.14  2508.95  4085.22  4302.34  4323.80
                             4330.30  4373.85  4376.98  4464.86  4628.19
                             5217.30  5285.49  5454.96

 Zero-point correction=                           0.214743 (Hartree/Particle)
 Thermal correction to Energy=                    0.229152
 Thermal correction to Enthalpy=                  0.230096
 Thermal correction to Gibbs Free Energy=         0.172355
 Sum of electronic and zero-point Energies=           -909.479377
 Sum of electronic and thermal Energies=              -909.464969
 Sum of electronic and thermal Enthalpies=            -909.464024
 Sum of electronic and thermal Free Energies=         -909.521766

                     E (Thermal)             CV                S
                      KCal/Mol        Cal/Mol-Kelvin    Cal/Mol-Kelvin
 Total                  143.795             55.453            121.527
 Electronic               0.000              0.000              0.000
 Translational            0.889              2.981             42.365
 Rotational               0.889              2.981             32.879
 Vibrational            142.018             49.491             46.282
 Vibration     1          0.594              1.983              5.657
 Vibration     2          0.595              1.977              4.806
 Vibration     3          0.598              1.969              4.203
 Vibration     4          0.600              1.961              3.807
 Vibration     5          0.610              1.931              3.066
 Vibration     6          0.623              1.886              2.492
 Vibration     7          0.632              1.859              2.265
 Vibration     8          0.638              1.838              2.122
 Vibration     9          0.660              1.772              1.769
 Vibration    10          0.668              1.746              1.662
 Vibration    11          0.686              1.694              1.479
 Vibration    12          0.710              1.624              1.281
 Vibration    13          0.727              1.575              1.166
 Vibration    14          0.744              1.529              1.071
 Vibration    15          0.761              1.483              0.985
 Vibration    16          0.810              1.358              0.791
 Vibration    17          0.815              1.345              0.775
 Vibration    18          0.853              1.255              0.664
 Vibration    19          0.901              1.149              0.553
 Vibration    20          0.918              1.114              0.520
 Vibration    21          0.934              1.081              0.491
 Vibration    22          0.941              1.067              0.479
 Vibration    23          0.946              1.055              0.469

                           ! Non-Optimized Parameters !
 Normal termination of Gaussian 16 at Sun Oct 27 05:03:04 2024.
