 Gaussian 16, Revision C.01,
 Gaussian 16:  EM64L-G16RevC.01  3-Jul-2019

 ------------------------------------------------------
 # PBE1PBE/aug-cc-pVDZ opt freq EmpiricalDispersion=GD3
 ------------------------------------------------------

 ----
 blah
 ----
 Symbolic Z-matrix:
 Charge =  0 Multiplicity = 1

 SCF Done:  E(RPBE1PBE) =  -910.211835817     A.U. after   14 cycles
 SCF Done:  E(RPBE1PBE) =  -910.229217918     A.U. after   12 cycles
 SCF Done:  E(RPBE1PBE) =  -910.230409869     A.U. after   13 cycles
 SCF Done:  E(RPBE1PBE) =  -910.230764977     A.U. after   11 cycles
 SCF Done:  E(RPBE1PBE) =  -910.230846909     A.U. after   11 cycles
 SCF Done:  E(RPBE1PBE) =  -910.230896219     A.U. after   11 cycles
 SCF Done:  E(RPBE1PBE) =  -910.230948108     A.U. after   11 cycles
 SCF Done:  E(RPBE1PBE) =  -910.231005191     A.U. after   11 cycles
 SCF Done:  E(RPBE1PBE) =  -910.231035231     A.U. after   11 cycles
 SCF Done:  E(RPBE1PBE) =  -910.231069267     A.U. after   11 cycles
 SCF Done:  E(RPBE1PBE) =  -910.233279507     A.U. after   12 cycles
 SCF Done:  E(RPBE1PBE) =  -910.233610306     A.U. after   12 cycles
 SCF Done:  E(RPBE1PBE) =  -910.233754662     A.U. after   11 cycles
 SCF Done:  E(RPBE1PBE) =  -910.233801009     A.U. after   11 cycles
 SCF Done:  E(RPBE1PBE) =  -910.233810851     A.U. after   10 cycles
 SCF Done:  E(RPBE1PBE) =  -910.233816979     A.U. after   10 cycles
 SCF Done:  E(RPBE1PBE) =  -910.233819363     A.U. after   10 cycles
 SCF Done:  E(RPBE1PBE) =  -910.233820994     A.U. after   10 cycles
 SCF Done:  E(RPBE1PBE) =  -910.233821353     A.U. after    9 cycles
 Optimization completed.
    -- Stationary point found.
 Normal termination of Gaussian 16 at Sat Oct 26 07:53:59 2024.

 ----------------------------------------------------------------------
 #N Geom=AllCheck Guess=TCheck SCRF=Check GenChk RPBE1PBE/Aug-CC-pVDZ F
 req
 ----------------------------------------------------------------------

 Structure from the checkpoint file:  "/scr/Gau-73406.chk"
 ----
 blah
 ----
 Charge =  0 Multiplicity = 1

                         Standard orientation:
 ---------------------------------------------------------------------
 Center     Atomic      Atomic             Coordinates (Angstroms)
 Number     Number       Type             X           Y           Z
 ---------------------------------------------------------------------
      1          6           0       -2.774389    0.558724   -0.146050
      2          6           0       -1.339835    0.921427   -0.547760
      3          6           0       -0.546012    0.299495    0.615373
      4          8           0       -1.231994    2.311958   -0.672112
      5          1           0       -1.077365    0.402350   -1.485331
      6          8           0       -1.211232   -0.922451    0.878291
      7          1           0       -0.632527    0.985257    1.478791
      8          6           0        0.903132    0.012517    0.356111
      9          6           0       -2.616901   -0.775818    0.585095
     10          1           0       -3.425488    0.465456   -1.029151
     11          8           0       -3.281489    1.516139    0.757451
     12          6           0       -3.038812   -1.998140   -0.203623
     13          1           0       -3.180424   -0.726022    1.528994
     14          8           0       -2.341546   -2.109481   -1.428784
     15          1           0       -4.106569   -1.922966   -0.447416
     16          1           0       -2.893853   -2.897608    0.419321
     17          1           0       -2.898836    2.362758    0.483193
     18          1           0       -0.293006    2.543973   -0.542122
     19          1           0       -1.402830   -2.100634   -1.211179
     20          6           0        1.435968   -1.224864    0.493663
     21          7           0        2.765431   -1.476395    0.288298
     22          6           0        3.686500   -0.506576   -0.056736
     23          7           0        3.121629    0.748358   -0.181788
     24          6           0        1.789391    1.101626   -0.018313
     25          1           0        0.822283   -2.073992    0.785639
     26          1           0        3.142039   -2.407201    0.395483
     27          1           0        3.757823    1.491568   -0.446099
     28          8           0        4.865391   -0.735887   -0.232040
     29          8           0        1.449005    2.270095   -0.195586
 ---------------------------------------------------------------------

 SCF Done:  E(RPBE1PBE) =  -910.233821353     A.U. after    1 cycles

 The electronic state is 1-A.
 Alpha  occ. eigenvalues --  -19.25835 -19.23768 -19.23678 -19.22993 -19.22799
 Alpha  occ. eigenvalues --  -19.22403 -14.49170 -14.48005 -10.40765 -10.38397
 Alpha  occ. eigenvalues --  -10.33309 -10.31239 -10.29601 -10.29499 -10.28962
 Alpha  occ. eigenvalues --  -10.28919 -10.28131  -1.13929  -1.11416  -1.10888
 Alpha  occ. eigenvalues --   -1.07617  -1.06593  -1.04787  -1.03687  -0.98631
 Alpha  occ. eigenvalues --   -0.87001  -0.80787  -0.79182  -0.74174  -0.71790
 Alpha  occ. eigenvalues --   -0.70575  -0.65503  -0.62974  -0.61607  -0.59775
 Alpha  occ. eigenvalues --   -0.56293  -0.55981  -0.54492  -0.53396  -0.52345
 Alpha  occ. eigenvalues --   -0.52106  -0.51655  -0.50385  -0.48605  -0.47698
 Alpha  occ. eigenvalues --   -0.46193  -0.45390  -0.45003  -0.44561  -0.42094
 Alpha  occ. eigenvalues --   -0.42040  -0.40470  -0.39759  -0.37976  -0.36657
 Alpha  occ. eigenvalues --   -0.34257  -0.33597  -0.33055  -0.31835  -0.31086
 Alpha  occ. eigenvalues --   -0.30119  -0.29691  -0.29263  -0.27192
 Alpha virt. eigenvalues --   -0.06847  -0.02332  -0.01593  -0.00054   0.00287
 Alpha virt. eigenvalues --    0.00703   0.01685   0.01781   0.02780   0.03140
 Alpha virt. eigenvalues --    0.03791   0.03916   0.04987   0.05425   0.05614

 Mulliken charges:
               1
     1  C    0.992614
     2  C    0.774520
     3  C    0.726823
     4  O   -0.661391
     5  H   -0.538346
     6  O   -0.762097
     7  H   -0.358572
     8  C    0.594652
     9  C    0.952837
    10  H   -0.385177
    11  O   -0.701626
    12  C    1.058402
    13  H   -0.516001
    14  O   -0.500347
    15  H   -0.254811
    16  H   -0.260780
    17  H    0.168669
    18  H    0.185194
    19  H    0.161975
    20  C    1.322685
    21  N   -0.510011
    22  C    0.687765
    23  N   -0.389702
    24  C    0.542839
    25  H   -0.773967
    26  H   -0.075374
    27  H   -0.058802
    28  O   -0.572003
    29  O   -0.849967
 Sum of Mulliken charges =  -0.00000

 Dipole moment (field-independent basis, Debye):
    X=              1.0313    Y=             -3.1762    Z=              1.3231  Tot=              3.5920
 Quadrupole moment (field-independent basis, Debye-Ang):
   XX=           -115.1545   YY=            -97.7103   ZZ=           -102.7222
   XY=              2.4273   XZ=              0.6854   YZ=             -4.2149

  Exact polarizability:     183.104      -9.376     150.071      -5.547      -4.150     101.018
 Approx polarizability:     228.660     -22.554     233.396      -8.256      -8.753     154.952

                      1                      2                      3
                      A                      A                      A
 Frequencies --     30.4434                45.6435                74.1328
 Red. masses --      6.5577                 8.2614                 6.8380
 Frc consts  --      0.0036                 0.0101                 0.0221
 IR Inten    --      0.7402                 0.2757                 4.0574

                      4                      5                      6
                      A                      A                      A
 Frequencies --     92.6353               123.6450               148.9386
 Red. masses --      8.2345                 4.2668                 7.7699
 Frc consts  --      0.0416                 0.0384                 0.1016
 IR Inten    --      2.0371                 3.8422                 7.7274

                      7                      8                      9
                      A                      A                      A
 Frequencies --    168.2190               194.3547               232.2613
 Red. masses --      8.2581                 6.8138                 4.3271
 Frc consts  --      0.1377                 0.1516                 0.1375
 IR Inten    --      2.2462                 1.1157                10.4620

                     10                     11                     12
                      A                      A                      A
 Frequencies --    250.6537               279.8312               311.7400
 Red. masses --      4.8471                 5.8048                 3.6367
 Frc consts  --      0.1794                 0.2678                 0.2082
 IR Inten    --      9.8301                10.1575                 4.6415

                     13                     14                     15
                      A                      A                      A
 Frequencies --    330.5912               353.0654               400.4108
 Red. masses --      3.4680                 4.3578                 2.5302
 Frc consts  --      0.2233                 0.3201                 0.2390
 IR Inten    --      2.8722                36.4125                35.9179

                     16                     17                     18
                      A                      A                      A
 Frequencies --    413.5690               428.4398               452.9860
 Red. masses --      6.3308                 1.7909                 2.2123
 Frc consts  --      0.6380                 0.1937                 0.2675
 IR Inten    --     54.5891                62.0277                18.1218

                     19                     20                     21
                      A                      A                      A
 Frequencies --    486.0605               537.2129               559.2375
 Red. masses --      1.3812                 5.3600                 7.5908
 Frc consts  --      0.1923                 0.9114                 1.3987
 IR Inten    --     93.6602                19.6916                19.8297

                     22                     23                     24
                      A                      A                      A
 Frequencies --    566.7960               607.1890               609.4658
 Red. masses --      6.5627                 1.1222                 4.9559
 Frc consts  --      1.2422                 0.2438                 1.0846
 IR Inten    --      3.0440                54.6300                19.4751

                     25                     26                     27
                      A                      A                      A
 Frequencies --    653.2253               664.0462               705.5109
 Red. masses --      4.4379                 1.2303                 1.2039
 Frc consts  --      1.1157                 0.3196                 0.3531
 IR Inten    --     17.1173                50.7980                55.2618

                     28                     29                     30
                      A                      A                      A
 Frequencies --    722.0704               745.6087               769.1203
 Red. masses --      3.8124                 5.8853                 8.2669
 Frc consts  --      1.1711                 1.9277                 2.8813
 IR Inten    --      8.4097                16.6334                33.0516

                     31                     32                     33
                      A                      A                      A
 Frequencies --    792.2179               799.1527               882.2255
 Red. masses --      6.9429                 8.1327                 3.2171
 Frc consts  --      2.5673                 3.0602                 1.4753
 IR Inten    --     23.9389                 8.6121                11.5764

                     34                     35                     36
                      A                      A                      A
 Frequencies --    910.3322               916.3608               940.0738
 Red. masses --      3.7419                 1.9974                 2.5174
 Frc consts  --      1.8270                 0.9882                 1.3108
 IR Inten    --     28.8067                 8.5993                17.6130

                     37                     38                     39
                      A                      A                      A
 Frequencies --    959.4827               996.2838              1024.7841
 Red. masses --      1.5133                 2.7541                 2.9169
 Frc consts  --      0.8208                 1.6106                 1.8048
 IR Inten    --     13.0849                 6.2773                32.0025

                     40                     41                     42
                      A                      A                      A
 Frequencies --   1072.5553              1092.6974              1101.0652
 Red. masses --      2.8434                 3.0975                 2.5429
 Frc consts  --      1.9272                 2.1790                 1.8164
 IR Inten    --     18.1658                17.3855                83.9378

                     43                     44                     45
                      A                      A                      A
 Frequencies --   1128.6433              1156.0847              1167.6490
 Red. masses --      3.1239                 3.3201                 3.0299
 Frc consts  --      2.3445                 2.6145                 2.4339
 IR Inten    --     67.3963               103.9580                66.7718

                     46                     47                     48
                      A                      A                      A
 Frequencies --   1180.5973              1217.4351              1226.3962
 Red. masses --      2.0627                 1.2140                 1.3591
 Frc consts  --      1.6939                 1.0601                 1.2044
 IR Inten    --     52.4655                32.2389                40.8719

                     49                     50                     51
                      A                      A                      A
 Frequencies --   1230.0211              1256.7594              1271.2464
 Red. masses --      1.7787                 2.1854                 1.3517
 Frc consts  --      1.5856                 2.0337                 1.2870
 IR Inten    --    116.8201                 2.7510                19.9576

                     52                     53                     54
                      A                      A                      A
 Frequencies --   1286.1917              1306.1528              1335.2872
 Red. masses --      1.1835                 1.4429                 1.4283
 Frc consts  --      1.1535                 1.4504                 1.5004
 IR Inten    --      9.2465                 5.4791                 6.7174

                     55                     56                     57
                      A                      A                      A
 Frequencies --   1352.8426              1360.7454              1373.5758
 Red. masses --      1.4463                 1.3124                 1.7647
 Frc consts  --      1.5595                 1.4317                 1.9617
 IR Inten    --      3.2628                12.8169                37.8182

                     58                     59                     60
                      A                      A                      A
 Frequencies --   1381.6189              1395.4007              1408.2869
 Red. masses --      1.5410                 1.6235                 1.8262
 Frc consts  --      1.7331                 1.8625                 2.1339
 IR Inten    --     32.5966                24.1320                 2.3764

                     61                     62                     63
                      A                      A                      A
 Frequencies --   1413.5542              1427.8111              1448.1077
 Red. masses --      1.3793                 1.9488                 2.0322
 Frc consts  --      1.6238                 2.3408                 2.5108
 IR Inten    --     59.6002                 1.4838                81.3754

                     64                     65                     66
                      A                      A                      A
 Frequencies --   1456.6943              1477.1017              1536.8860
 Red. masses --      1.8487                 1.0871                 4.5619
 Frc consts  --      2.3113                 1.3974                 6.3487
 IR Inten    --     92.2564                 4.4366               166.5942

                     67                     68                     69
                      A                      A                      A
 Frequencies --   1712.5878              1747.6116              1837.3396
 Red. masses --      7.1133                 8.2995                 8.1928
 Frc consts  --     12.2921                14.9345                16.2954
 IR Inten    --      3.6747               615.8867               914.2589

                     70                     71                     72
                      A                      A                      A
 Frequencies --   3006.1355              3028.3224              3035.7419
 Red. masses --      1.0818                 1.0683                 1.0848
 Frc consts  --      5.7601                 5.7725                 5.8905
 IR Inten    --      9.9959                48.4281                22.3879

                     73                     74                     75
                      A                      A                      A
 Frequencies --   3060.9622              3077.0286              3124.4696
 Red. masses --      1.0870                 1.0864                 1.0970
 Frc consts  --      6.0009                 6.0605                 6.3097
 IR Inten    --     42.0857                36.7735                19.1336

                     76                     77                     78
                      A                      A                      A
 Frequencies --   3248.3952              3586.3103              3626.6221
 Red. masses --      1.0944                 1.0679                 1.0779
 Frc consts  --      6.8037                 8.0926                 8.3528
 IR Inten    --      0.7742               556.5623                77.6944

                     79                     80                     81
                      A                      A                      A
 Frequencies --   3666.8407              3760.0899              3842.6320
 Red. masses --      1.0791                 1.0651                 1.0656
 Frc consts  --      8.5490                 8.8721                 9.2702
 IR Inten    --    115.8227                68.7104                34.7894

 - Thermochemistry -
 -------------------
 Temperature   298.150 Kelvin.  Pressure   1.00000 Atm.
 Atom     1 has atomic number  6 and mass  12.00000

 Molecular mass:   244.06954 amu.
 Principal axes and moments of inertia in atomic units:
                           1         2         3
     Eigenvalues --  2065.792756024.498477424.66238
           X            0.99998   0.00700   0.00038
           Y           -0.00700   0.99996  -0.00509
           Z           -0.00042   0.00508   0.99999
 This molecule is an asymmetric top.
 Rotational symmetry number  1.
 Warning -- assumption of classical behavior for rotation
           may cause significant error
 Rotational temperatures (Kelvin)      0.04193     0.01438     0.01167
 Rotational constants (GHZ):           0.87363     0.29957     0.24307
 Zero-point vibrational energy     601724.7 (Joules/Mol)
                                  143.81566 (Kcal/Mol)
 Warning -- explicit consideration of  24 degrees of freedom as
           vibrations may cause significant error
 Vibrational temperatures:     43.80    65.67   106.66   133.28   177.90
          (Kelvin)            214.29   242.03   279.63   334.17   360.63
                              402.61   448.52   475.65   507.98   576.10
                              595.03   616.43   651.75   699.33   772.93
                              804.62   815.49   873.61   876.89   939.85
                              955.41  1015.07  1038.90  1072.76  1106.59
                             1139.82  1149.80  1269.33  1309.76  1318.44
                             1352.56  1380.48  1433.43  1474.44  1543.17
                             1572.15  1584.19  1623.87  1663.35  1679.99
                             1698.62  1751.62  1764.51  1769.73  1808.20
                             1829.04  1850.54  1879.26  1921.18  1946.44
                             1957.81  1976.27  1987.84  2007.67  2026.21
                             2033.79  2054.30  2083.50  2095.86  2125.22
                             2211.24  2464.03  2514.42  2643.52  4325.16
                             4357.08  4367.76  4404.04  4427.16  4495.41
                             4673.72  5159.90  5217.90  5275.77  5409.93
                             5528.69

 Zero-point correction=                           0.229185 (Hartree/Particle)
 Thermal correction to Energy=                    0.244125
 Thermal correction to Enthalpy=                  0.245069
 Thermal correction to Gibbs Free Energy=         0.186362
 Sum of electronic and zero-point Energies=           -910.004637
 Sum of electronic and thermal Energies=              -909.989696
 Sum of electronic and thermal Enthalpies=            -909.988752
 Sum of electronic and thermal Free Energies=         -910.047459

                     E (Thermal)             CV                S
                      KCal/Mol        Cal/Mol-Kelvin    Cal/Mol-Kelvin
 Total                  153.191             57.594            123.560
 Electronic               0.000              0.000              0.000
 Translational            0.889              2.981             42.378
 Rotational               0.889              2.981             32.891
 Vibrational            151.413             51.633             48.291
 Vibration     1          0.594              1.984              5.800
 Vibration     2          0.595              1.979              4.998
 Vibration     3          0.599              1.966              4.041
 Vibration     4          0.602              1.954              3.604
 Vibration     5          0.610              1.929              3.043
 Vibration     6          0.618              1.904              2.686
 Vibration     7          0.625              1.882              2.455
 Vibration     8          0.635              1.848              2.186
 Vibration     9          0.653              1.792              1.861
 Vibration    10          0.663              1.762              1.726
 Vibration    11          0.680              1.711              1.535
 Vibration    12          0.700              1.651              1.353
 Vibration    13          0.713              1.614              1.257
 Vibration    14          0.729              1.569              1.152
 Vibration    15          0.766              1.469              0.961
 Vibration    16          0.777              1.441              0.914
 Vibration    17          0.790              1.408              0.864
 Vibration    18          0.812              1.354              0.787
 Vibration    19          0.842              1.281              0.694
 Vibration    20          0.892              1.168              0.571
 Vibration    21          0.915              1.120              0.525
 Vibration    22          0.923              1.103              0.510
 Vibration    23          0.966              1.017              0.437
 Vibration    24          0.968              1.012              0.434

 Optimization completed.
    -- Stationary point found.
 Normal termination of Gaussian 16 at Sat Oct 26 08:10:12 2024.
