 Gaussian 16, Revision C.01,
 Gaussian 16:  EM64L-G16RevC.01  3-Jul-2019

 ------------------------------------------------------
 # PBE1PBE/aug-cc-pVDZ opt freq EmpiricalDispersion=GD3
 ------------------------------------------------------

 ----
 blah
 ----
 Symbolic Z-matrix:
 Charge =  0 Multiplicity = 1

 SCF Done:  E(RPBE1PBE) =  -910.209866567     A.U. after   14 cycles
 SCF Done:  E(RPBE1PBE) =  -910.227695451     A.U. after   13 cycles
 SCF Done:  E(RPBE1PBE) =  -910.228473354     A.U. after   12 cycles
 SCF Done:  E(RPBE1PBE) =  -910.228599378     A.U. after   11 cycles
 SCF Done:  E(RPBE1PBE) =  -910.228632776     A.U. after   10 cycles
 SCF Done:  E(RPBE1PBE) =  -910.228636302     A.U. after   10 cycles
 SCF Done:  E(RPBE1PBE) =  -910.228639397     A.U. after    9 cycles
 SCF Done:  E(RPBE1PBE) =  -910.228641246     A.U. after    9 cycles
 SCF Done:  E(RPBE1PBE) =  -910.228641981     A.U. after    8 cycles
 SCF Done:  E(RPBE1PBE) =  -910.228642282     A.U. after    8 cycles
 SCF Done:  E(RPBE1PBE) =  -910.228642523     A.U. after    8 cycles
 Optimization completed.
    -- Stationary point found.
 Normal termination of Gaussian 16 at Sat Oct 26 07:01:35 2024.

 ----------------------------------------------------------------------
 #N Geom=AllCheck Guess=TCheck SCRF=Check GenChk RPBE1PBE/Aug-CC-pVDZ F
 req
 ----------------------------------------------------------------------

 Structure from the checkpoint file:  "/scr/Gau-26111.chk"
 ----
 blah
 ----
 Charge =  0 Multiplicity = 1

                         Standard orientation:
 ---------------------------------------------------------------------
 Center     Atomic      Atomic             Coordinates (Angstroms)
 Number     Number       Type             X           Y           Z
 ---------------------------------------------------------------------
      1          6           0       -2.092511   -0.195694    0.797987
      2          6           0       -1.254201   -1.376946    0.313037
      3          6           0       -0.488602   -0.750795   -0.861334
      4          8           0       -2.177622   -2.367441   -0.107639
      5          1           0       -0.579354   -1.772669    1.083028
      6          8           0       -1.286140    0.327650   -1.341811
      7          1           0       -0.373882   -1.501610   -1.657958
      8          6           0        0.869129   -0.253155   -0.457443
      9          6           0       -2.434300    0.504333   -0.519346
     10          1           0       -1.450655    0.458413    1.404415
     11          8           0       -3.202540   -0.541382    1.579245
     12          6           0       -2.750774    1.982106   -0.411197
     13          1           0       -3.305883   -0.003487   -0.971637
     14          8           0       -1.734122    2.728841    0.244450
     15          1           0       -3.723846    2.098703    0.091051
     16          1           0       -2.839608    2.398907   -1.422900
     17          1           0       -3.550197   -1.365071    1.211959
     18          1           0       -1.692414   -3.174163   -0.303713
     19          1           0       -1.902589    2.711081    1.190075
     20          6           0        1.169825    1.059967   -0.341743
     21          7           0        2.420198    1.480404    0.024449
     22          6           0        3.471891    0.626576    0.299705
     23          7           0        3.134708   -0.706451    0.178050
     24          6           0        1.896027   -1.242460   -0.175752
     25          1           0        0.422731    1.831507   -0.526080
     26          1           0        2.635266    2.463911    0.100619
     27          1           0        3.876825   -1.366284    0.377843
     28          8           0        4.578227    1.016546    0.618858
     29          8           0        1.732242   -2.454277   -0.225313
 ---------------------------------------------------------------------

 SCF Done:  E(RPBE1PBE) =  -910.228642523     A.U. after    1 cycles

 The electronic state is 1-A.
 Alpha  occ. eigenvalues --  -19.25323 -19.24721 -19.24503 -19.23960 -19.21498
 Alpha  occ. eigenvalues --  -19.21456 -14.47648 -14.46373 -10.39373 -10.36304
 Alpha  occ. eigenvalues --  -10.31460 -10.30514 -10.30199 -10.29760 -10.29214
 Alpha  occ. eigenvalues --  -10.29102 -10.26231  -1.12331  -1.10956  -1.09076
 Alpha  occ. eigenvalues --   -1.08351  -1.07214  -1.06554  -1.02090  -0.96987
 Alpha  occ. eigenvalues --   -0.85700  -0.81116  -0.79189  -0.73092  -0.70456
 Alpha  occ. eigenvalues --   -0.69741  -0.65404  -0.62849  -0.60393  -0.59514
 Alpha  occ. eigenvalues --   -0.57335  -0.55883  -0.54444  -0.53651  -0.51159
 Alpha  occ. eigenvalues --   -0.50637  -0.49837  -0.49430  -0.48295  -0.47018
 Alpha  occ. eigenvalues --   -0.45673  -0.45112  -0.44144  -0.43558  -0.42737
 Alpha  occ. eigenvalues --   -0.41891  -0.39590  -0.38911  -0.38556  -0.36882
 Alpha  occ. eigenvalues --   -0.35656  -0.33053  -0.32051  -0.31677  -0.31360
 Alpha  occ. eigenvalues --   -0.29822  -0.29217  -0.28300  -0.26249
 Alpha virt. eigenvalues --   -0.05044  -0.01663  -0.00569  -0.00164   0.00160
 Alpha virt. eigenvalues --    0.00607   0.01388   0.01918   0.02745   0.03203
 Alpha virt. eigenvalues --    0.03613   0.04099   0.05314   0.05707   0.06087

 Mulliken charges:
               1
     1  C    0.810714
     2  C    1.221302
     3  C    0.822839
     4  O   -0.762728
     5  H   -0.447593
     6  O   -0.777679
     7  H   -0.446327
     8  C    0.532652
     9  C    0.614375
    10  H   -0.452689
    11  O   -0.619473
    12  C    1.133803
    13  H   -0.524561
    14  O   -0.551391
    15  H   -0.185194
    16  H   -0.258069
    17  H    0.097436
    18  H    0.138003
    19  H    0.176347
    20  C    1.375989
    21  N   -0.522537
    22  C    0.729951
    23  N   -0.348314
    24  C    0.472720
    25  H   -0.717584
    26  H   -0.076491
    27  H   -0.074434
    28  O   -0.589593
    29  O   -0.771475
 Sum of Mulliken charges =   0.00000

 Dipole moment (field-independent basis, Debye):
    X=             -2.2644    Y=              1.1129    Z=              0.0401  Tot=              2.5234
 Quadrupole moment (field-independent basis, Debye-Ang):
   XX=           -112.1994   YY=            -95.4892   ZZ=           -101.1063
   XY=             -1.1704   XZ=             -0.7825   YZ=              1.2055

  Exact polarizability:     172.969       8.554     154.823       8.150       2.648     102.531
 Approx polarizability:     216.440      19.398     239.569      14.127       7.485     156.499

                      1                      2                      3
                      A                      A                      A
 Frequencies --     46.6941                50.6858                70.0653
 Red. masses --      5.9402                 8.3634                 6.4107
 Frc consts  --      0.0076                 0.0127                 0.0185
 IR Inten    --      0.7670                 1.5973                 4.1297

                      4                      5                      6
                      A                      A                      A
 Frequencies --     95.1979               116.8394               140.4016
 Red. masses --      6.1513                 4.9299                 6.4904
 Frc consts  --      0.0328                 0.0397                 0.0754
 IR Inten    --      4.2457                 3.3555                 1.0482

                      7                      8                      9
                      A                      A                      A
 Frequencies --    163.9263               180.3534               221.4397
 Red. masses --      8.7492                 7.0997                 3.2705
 Frc consts  --      0.1385                 0.1361                 0.0945
 IR Inten    --      1.3275                 3.8844                 8.5555

                     10                     11                     12
                      A                      A                      A
 Frequencies --    251.5104               265.4269               282.1559
 Red. masses --      2.7435                 3.2986                 1.5362
 Frc consts  --      0.1023                 0.1369                 0.0721
 IR Inten    --     47.9807                43.1479                55.0910

                     13                     14                     15
                      A                      A                      A
 Frequencies --    289.8146               297.3968               333.4415
 Red. masses --      4.2000                 1.4548                 3.1842
 Frc consts  --      0.2078                 0.0758                 0.2086
 IR Inten    --     27.4331                53.3182                30.7971

                     16                     17                     18
                      A                      A                      A
 Frequencies --    349.1306               398.6954               413.5102
 Red. masses --      5.5537                 7.6587                 3.2487
 Frc consts  --      0.3989                 0.7173                 0.3273
 IR Inten    --     14.8606                18.6330                 9.2082

                     19                     20                     21
                      A                      A                      A
 Frequencies --    438.3877               446.1497               545.9918
 Red. masses --      1.3987                 2.7066                 8.4615
 Frc consts  --      0.1584                 0.3174                 1.4862
 IR Inten    --     50.1188                42.3082                10.0321

                     22                     23                     24
                      A                      A                      A
 Frequencies --    562.6228               581.0747               610.0603
 Red. masses --      5.7713                 6.0485                 1.1467
 Frc consts  --      1.0764                 1.2033                 0.2514
 IR Inten    --      8.8465                10.4170                46.7835

                     25                     26                     27
                      A                      A                      A
 Frequencies --    621.9151               631.6402               700.5083
 Red. masses --      5.5428                 4.6531                 1.1870
 Frc consts  --      1.2631                 1.0938                 0.3432
 IR Inten    --     10.1230                24.7797                66.7410

                     28                     29                     30
                      A                      A                      A
 Frequencies --    717.0719               761.0740               771.1624
 Red. masses --      4.4381                 5.7128                 8.6982
 Frc consts  --      1.3445                 1.9496                 3.0477
 IR Inten    --     10.7219                23.4452                28.1195

                     31                     32                     33
                      A                      A                      A
 Frequencies --    792.7888               803.1839               865.5259
 Red. masses --      7.9687                 7.8955                 3.7264
 Frc consts  --      2.9509                 3.0010                 1.6447
 IR Inten    --      8.3001                26.6832                16.0310

                     34                     35                     36
                      A                      A                      A
 Frequencies --    881.0863               884.1308               959.1258
 Red. masses --      2.3255                 3.2933                 2.1793
 Frc consts  --      1.0637                 1.5168                 1.1812
 IR Inten    --      6.0851                 8.3850                26.6507

                     37                     38                     39
                      A                      A                      A
 Frequencies --    974.3834               994.8454               999.6082
 Red. masses --      1.6107                 2.7740                 2.0486
 Frc consts  --      0.9010                 1.6176                 1.2061
 IR Inten    --      7.9037                 9.9484                27.2614

                     40                     41                     42
                      A                      A                      A
 Frequencies --   1063.7985              1090.5279              1095.3377
 Red. masses --      2.5584                 4.4328                 2.6600
 Frc consts  --      1.7058                 3.1060                 1.8803
 IR Inten    --      6.6089                74.5210                49.6270

                     43                     44                     45
                      A                      A                      A
 Frequencies --   1126.3101              1156.2432              1164.1811
 Red. masses --      2.7179                 2.2797                 2.4273
 Frc consts  --      2.0314                 1.7957                 1.9383
 IR Inten    --     81.3744               120.7251               100.1405

                     46                     47                     48
                      A                      A                      A
 Frequencies --   1171.3580              1192.0909              1222.9979
 Red. masses --      2.1662                 1.3520                 1.5564
 Frc consts  --      1.7512                 1.1320                 1.3716
 IR Inten    --     39.7403                97.1134                41.0832

                     49                     50                     51
                      A                      A                      A
 Frequencies --   1230.5595              1250.3037              1256.0389
 Red. masses --      1.4386                 1.7772                 2.0069
 Frc consts  --      1.2835                 1.6369                 1.8655
 IR Inten    --     56.7054                 5.5702                 9.3004

                     52                     53                     54
                      A                      A                      A
 Frequencies --   1285.9263              1305.8577              1322.3248
 Red. masses --      1.4792                 1.3652                 1.5177
 Frc consts  --      1.4412                 1.3717                 1.5636
 IR Inten    --      8.7372                 7.6441                34.2609

                     55                     56                     57
                      A                      A                      A
 Frequencies --   1330.0703              1368.4778              1381.8740
 Red. masses --      1.4100                 1.6627                 1.4302
 Frc consts  --      1.4697                 1.8346                 1.6091
 IR Inten    --     18.3475                 5.4061                 3.3433

                     58                     59                     60
                      A                      A                      A
 Frequencies --   1387.2876              1390.3327              1403.4546
 Red. masses --      1.7633                 1.3964                 1.7757
 Frc consts  --      1.9995                 1.5904                 2.0607
 IR Inten    --     22.6512                27.0727                 3.7618

                     61                     62                     63
                      A                      A                      A
 Frequencies --   1410.2350              1424.7325              1442.5254
 Red. masses --      1.5038                 1.4827                 1.5386
 Frc consts  --      1.7621                 1.7732                 1.8863
 IR Inten    --      6.0008                18.2006                32.0943

                     64                     65                     66
                      A                      A                      A
 Frequencies --   1448.1124              1466.2369              1528.6594
 Red. masses --      2.9242                 1.0782                 4.3327
 Frc consts  --      3.6129                 1.3657                 5.9653
 IR Inten    --     66.2147                 6.3758               175.9551

                     67                     68                     69
                      A                      A                      A
 Frequencies --   1721.5798              1767.8919              1828.4115
 Red. masses --      6.8819                 9.1694                 8.1705
 Frc consts  --     12.0175                16.8851                16.0933
 IR Inten    --     20.9597               615.0586               876.1767

                     70                     71                     72
                      A                      A                      A
 Frequencies --   3016.0303              3058.5704              3062.0345
 Red. masses --      1.0823                 1.0648                 1.0851
 Frc consts  --      5.8006                 5.8687                 5.9946
 IR Inten    --     32.3349                52.9677                18.3531

                     73                     74                     75
                      A                      A                      A
 Frequencies --   3088.9392              3105.7653              3126.5684
 Red. masses --      1.0852                 1.0883                 1.1035
 Frc consts  --      6.1006                 6.1849                 6.3558
 IR Inten    --     13.2687                27.5371                15.3748

                     76                     77                     78
                      A                      A                      A
 Frequencies --   3226.3840              3631.1351              3668.6798
 Red. masses --      1.0959                 1.0778                 1.0790
 Frc consts  --      6.7211                 8.3731                 8.5565
 IR Inten    --     18.9404                75.5829               106.8783

                     79                     80                     81
                      A                      A                      A
 Frequencies --   3801.7062              3880.8112              3887.9878
 Red. masses --      1.0653                 1.0669                 1.0669
 Frc consts  --      9.0719                 9.4668                 9.5023
 IR Inten    --     61.7676                65.0127                37.7934

 - Thermochemistry -
 -------------------
 Temperature   298.150 Kelvin.  Pressure   1.00000 Atm.
 Atom     1 has atomic number  6 and mass  12.00000

 Molecular mass:   244.06954 amu.
 Principal axes and moments of inertia in atomic units:
                           1         2         3
     Eigenvalues --  2313.840045575.979877047.48190
           X            0.99997  -0.00738   0.00022
           Y            0.00738   0.99997  -0.00167
           Z           -0.00021   0.00167   1.00000
 This molecule is an asymmetric top.
 Rotational symmetry number  1.
 Warning -- assumption of classical behavior for rotation
           may cause significant error
 Rotational temperatures (Kelvin)      0.03743     0.01553     0.01229
 Rotational constants (GHZ):           0.77998     0.32366     0.25608
 Zero-point vibrational energy     599911.5 (Joules/Mol)
                                  143.38229 (Kcal/Mol)
 Warning -- explicit consideration of  24 degrees of freedom as
           vibrations may cause significant error
 Vibrational temperatures:     67.18    72.93   100.81   136.97   168.11
          (Kelvin)            202.01   235.85   259.49   318.60   361.87
                              381.89   405.96   416.98   427.89   479.75
                              502.32   573.63   594.95   630.74   641.91
                              785.56   809.49   836.04   877.74   894.80
                              908.79  1007.88  1031.71  1095.02  1109.53
                             1140.65  1155.60  1245.30  1267.69  1272.07
                             1379.97  1401.92  1431.36  1438.21  1530.57
                             1569.03  1575.95  1620.51  1663.58  1675.00
                             1685.32  1715.15  1759.62  1770.50  1798.91
                             1807.16  1850.16  1878.84  1902.53  1913.67
                             1968.93  1988.21  1996.00  2000.38  2019.26
                             2029.01  2049.87  2075.47  2083.51  2109.59
                             2199.40  2476.97  2543.60  2630.68  4339.39
                             4400.60  4405.58  4444.29  4468.50  4498.43
                             4642.05  5224.39  5278.41  5469.81  5583.62
                             5593.95

 Zero-point correction=                           0.228494 (Hartree/Particle)
 Thermal correction to Energy=                    0.244019
 Thermal correction to Enthalpy=                  0.244963
 Thermal correction to Gibbs Free Energy=         0.185497
 Sum of electronic and zero-point Energies=           -910.000148
 Sum of electronic and thermal Energies=              -909.984623
 Sum of electronic and thermal Enthalpies=            -909.983679
 Sum of electronic and thermal Free Energies=         -910.043146

                     E (Thermal)             CV                S
                      KCal/Mol        Cal/Mol-Kelvin    Cal/Mol-Kelvin
 Total                  153.124             59.020            125.158
 Electronic               0.000              0.000              0.000
 Translational            0.889              2.981             42.378
 Rotational               0.889              2.981             32.875
 Vibrational            151.347             53.058             49.905
 Vibration     1          0.595              1.979              4.953
 Vibration     2          0.595              1.977              4.790
 Vibration     3          0.598              1.968              4.152
 Vibration     4          0.603              1.953              3.550
 Vibration     5          0.608              1.935              3.152
 Vibration     6          0.615              1.913              2.798
 Vibration     7          0.623              1.887              2.504
 Vibration     8          0.629              1.866              2.325
 Vibration     9          0.648              1.808              1.947
 Vibration    10          0.663              1.760              1.720
 Vibration    11          0.671              1.736              1.626
 Vibration    12          0.681              1.707              1.521
 Vibration    13          0.686              1.693              1.475
 Vibration    14          0.691              1.679              1.432
 Vibration    15          0.715              1.609              1.243
 Vibration    16          0.726              1.577              1.170
 Vibration    17          0.765              1.473              0.967
 Vibration    18          0.777              1.441              0.914
 Vibration    19          0.799              1.386              0.832
 Vibration    20          0.805              1.369              0.808
 Vibration    21          0.901              1.148              0.553
 Vibration    22          0.918              1.112              0.519
 Vibration    23          0.938              1.072              0.483
 Vibration    24          0.969              1.011              0.433

                           ! Non-Optimized Parameters !
 Normal termination of Gaussian 16 at Sat Oct 26 07:17:43 2024.
