 Gaussian 16, Revision C.01,
 Gaussian 16:  EM64L-G16RevC.01  3-Jul-2019

 ------------------------------------------------------
 # PBE1PBE/aug-cc-pVDZ opt freq EmpiricalDispersion=GD3
 ------------------------------------------------------

 ----
 blah
 ----
 Symbolic Z-matrix:
 Charge = -1 Multiplicity = 1

 SCF Done:  E(RPBE1PBE) =  -909.673200248     A.U. after   14 cycles
 SCF Done:  E(RPBE1PBE) =  -909.685127009     A.U. after   14 cycles
 SCF Done:  E(RPBE1PBE) =  -909.686228906     A.U. after   12 cycles
 SCF Done:  E(RPBE1PBE) =  -909.686987583     A.U. after   12 cycles
 SCF Done:  E(RPBE1PBE) =  -909.688066521     A.U. after   14 cycles
 SCF Done:  E(RPBE1PBE) =  -909.690312820     A.U. after   15 cycles
 SCF Done:  E(RPBE1PBE) =  -909.692982352     A.U. after   12 cycles
 SCF Done:  E(RPBE1PBE) =  -909.695608919     A.U. after   14 cycles
 SCF Done:  E(RPBE1PBE) =  -909.693882539     A.U. after   12 cycles
 SCF Done:  E(RPBE1PBE) =  -909.696415500     A.U. after   12 cycles
 SCF Done:  E(RPBE1PBE) =  -909.706895615     A.U. after   14 cycles
 SCF Done:  E(RPBE1PBE) =  -909.706608166     A.U. after   14 cycles
 SCF Done:  E(RPBE1PBE) =  -909.706904031     A.U. after   12 cycles
 SCF Done:  E(RPBE1PBE) =  -909.706826800     A.U. after   12 cycles
 SCF Done:  E(RPBE1PBE) =  -909.706911654     A.U. after   11 cycles
 SCF Done:  E(RPBE1PBE) =  -909.706899712     A.U. after   11 cycles
 SCF Done:  E(RPBE1PBE) =  -909.706912546     A.U. after   10 cycles
 SCF Done:  E(RPBE1PBE) =  -909.706911084     A.U. after    9 cycles
 SCF Done:  E(RPBE1PBE) =  -909.706912708     A.U. after   10 cycles
 Optimization completed.
    -- Stationary point found.
 Normal termination of Gaussian 16 at Sun Oct 27 03:28:41 2024.

 ----------------------------------------------------------------------
 #N Geom=AllCheck Guess=TCheck SCRF=Check GenChk RPBE1PBE/Aug-CC-pVDZ F
 req
 ----------------------------------------------------------------------

 Structure from the checkpoint file:  "/scr/Gau-16117.chk"
 ----
 blah
 ----
 Charge = -1 Multiplicity = 1

                         Standard orientation:
 ---------------------------------------------------------------------
 Center     Atomic      Atomic             Coordinates (Angstroms)
 Number     Number       Type             X           Y           Z
 ---------------------------------------------------------------------
      1          6           0       -2.710807   -0.628049    0.183448
      2          6           0       -1.251533   -0.934120    0.550359
      3          6           0       -0.484067   -0.238927   -0.586154
      4          8           0       -1.058897   -2.320281    0.616981
      5          1           0       -0.994168   -0.436449    1.501737
      6          8           0       -1.216812    0.967601   -0.783942
      7          1           0       -0.589170   -0.882681   -1.482937
      8          6           0        0.961121    0.054313   -0.325649
      9          6           0       -2.608394    0.689540   -0.601426
     10          1           0       -3.340551   -0.510957    1.080010
     11          8           0       -3.225635   -1.656520   -0.639515
     12          6           0       -3.197312    1.902603    0.091722
     13          1           0       -3.098224    0.542712   -1.579221
     14          8           0       -2.552303    2.164573    1.321759
     15          1           0       -4.260310    1.726267    0.308159
     16          1           0       -3.122234    2.774006   -0.583682
     17          1           0       -2.642998   -2.413467   -0.451854
     18          1           0       -0.085411   -2.458499    0.433925
     19          1           0       -1.605729    2.103625    1.133835
     20          6           0        1.540411    1.314170   -0.433556
     21          7           0        2.822872    1.637889   -0.258506
     22          6           0        3.685407    0.628893    0.048443
     23          7           0        3.141873   -0.665313    0.152192
     24          6           0        1.827028   -1.027396   -0.005248
     25          1           0        0.883038    2.149599   -0.693939
     26          1           0        3.793066   -1.401937    0.389976
     27          8           0        4.897368    0.760841    0.240854
     28          8           0        1.498573   -2.237016    0.138431
 ---------------------------------------------------------------------

 SCF Done:  E(RPBE1PBE) =  -909.706912708     A.U. after    1 cycles

 The electronic state is 1-A.
 Alpha  occ. eigenvalues --  -19.14033 -19.13591 -19.11956 -19.10772 -19.07398
 Alpha  occ. eigenvalues --  -19.04223 -14.30801 -14.24127 -10.21219 -10.21187
 Alpha  occ. eigenvalues --  -10.19101 -10.18828 -10.18175 -10.18081 -10.17545
 Alpha  occ. eigenvalues --  -10.14954 -10.10529  -0.99692  -0.96796  -0.95767
 Alpha  occ. eigenvalues --   -0.95274  -0.93264  -0.92129  -0.83496  -0.78497
 Alpha  occ. eigenvalues --   -0.71233  -0.69034  -0.65115  -0.58881  -0.55012
 Alpha  occ. eigenvalues --   -0.53756  -0.50771  -0.50344  -0.44943  -0.43968
 Alpha  occ. eigenvalues --   -0.42583  -0.42098  -0.41439  -0.40020  -0.38043
 Alpha  occ. eigenvalues --   -0.37051  -0.35305  -0.34661  -0.34121  -0.32861
 Alpha  occ. eigenvalues --   -0.31424  -0.30323  -0.30266  -0.29596  -0.27754
 Alpha  occ. eigenvalues --   -0.27158  -0.26365  -0.26026  -0.22922  -0.21115
 Alpha  occ. eigenvalues --   -0.20252  -0.18884  -0.18587  -0.17855  -0.16673
 Alpha  occ. eigenvalues --   -0.16065  -0.14584  -0.13441  -0.08977
 Alpha virt. eigenvalues --    0.07884   0.09320   0.09526   0.10016   0.10620
 Alpha virt. eigenvalues --    0.11099   0.11627   0.12093   0.12520   0.13040
 Alpha virt. eigenvalues --    0.13594   0.14677   0.15569   0.15768   0.15956

 Mulliken charges:
               1
     1  C    0.927756
     2  C    0.753482
     3  C    0.695980
     4  O   -0.733972
     5  H   -0.551990
     6  O   -0.768124
     7  H   -0.375325
     8  C    0.835793
     9  C    0.967841
    10  H   -0.395100
    11  O   -0.721628
    12  C    1.133539
    13  H   -0.551470
    14  O   -0.545434
    15  H   -0.266055
    16  H   -0.266036
    17  H    0.183359
    18  H    0.266696
    19  H    0.195438
    20  C    0.675582
    21  N   -0.661317
    22  C    0.661765
    23  N   -0.397755
    24  C    0.556623
    25  H   -0.762334
    26  H   -0.106373
    27  O   -0.717777
    28  O   -1.033164
 Sum of Mulliken charges =  -1.00000

 Dipole moment (field-independent basis, Debye):
    X=             -8.1225    Y=             -0.6381    Z=             -0.8318  Tot=              8.1899
 Quadrupole moment (field-independent basis, Debye-Ang):
   XX=           -167.1209   YY=           -124.2261   ZZ=           -105.7431
   XY=            -17.7658   XZ=              1.3846   YZ=             -1.7078

  Exact polarizability:     200.770       8.295     158.297       7.260      -3.196     107.852
 Approx polarizability:     253.192      18.072     240.867      11.993      -5.472     165.190

                      1                      2                      3
                      A                      A                      A
 Frequencies --     30.8527                44.2229                65.8482
 Red. masses --      6.7444                 9.0505                 7.2689
 Frc consts  --      0.0038                 0.0104                 0.0186
 IR Inten    --      0.2616                 0.9635                 1.7555

                      4                      5                      6
                      A                      A                      A
 Frequencies --     91.8066               125.8268               155.5164
 Red. masses --      8.2435                 4.9896                 6.3850
 Frc consts  --      0.0409                 0.0465                 0.0910
 IR Inten    --      1.5239                 2.3027                 2.0380

                      7                      8                      9
                      A                      A                      A
 Frequencies --    183.9617               197.8846               242.6947
 Red. masses --      8.4510                 7.9357                 4.4807
 Frc consts  --      0.1685                 0.1831                 0.1555
 IR Inten    --      6.0429                 1.3292                 6.7140

                     10                     11                     12
                      A                      A                      A
 Frequencies --    256.6040               286.1014               324.2242
 Red. masses --      5.1824                 7.4518                 3.4491
 Frc consts  --      0.2011                 0.3594                 0.2136
 IR Inten    --     21.1489                 6.6018                 3.7475

                     13                     14                     15
                      A                      A                      A
 Frequencies --    346.5099               370.7915               430.9318
 Red. masses --      6.2227                 5.5258                 7.8484
 Frc consts  --      0.4402                 0.4476                 0.8587
 IR Inten    --      4.9761                18.1191                27.9718

                     16                     17                     18
                      A                      A                      A
 Frequencies --    438.0722               454.5836               503.3218
 Red. masses --      3.5347                 2.8619                 1.1906
 Frc consts  --      0.3997                 0.3484                 0.1777
 IR Inten    --     20.9354                 7.6956                86.3966

                     19                     20                     21
                      A                      A                      A
 Frequencies --    539.8693               556.3294               562.4794
 Red. masses --      6.0378                 1.1289                 7.0493
 Frc consts  --      1.0368                 0.2059                 1.3140
 IR Inten    --     20.1440                82.6156                 9.0941

                     22                     23                     24
                      A                      A                      A
 Frequencies --    594.7176               616.4167               659.9213
 Red. masses --      6.8675                 5.6707                 6.7441
 Frc consts  --      1.4311                 1.2695                 1.7305
 IR Inten    --      9.8584                12.4599                13.1756

                     25                     26                     27
                      A                      A                      A
 Frequencies --    700.1249               728.5316               731.1844
 Red. masses --      1.1567                 5.7001                 4.5000
 Frc consts  --      0.3341                 1.7825                 1.4175
 IR Inten    --     49.2523                13.0659                17.0197

                     28                     29                     30
                      A                      A                      A
 Frequencies --    777.9911               808.9160               814.3823
 Red. masses --      9.4827                10.2080                 8.5656
 Frc consts  --      3.3817                 3.9355                 3.3471
 IR Inten    --      0.9745                31.4440                 6.0835

                     31                     32                     33
                      A                      A                      A
 Frequencies --    882.3772               890.2505               911.8718
 Red. masses --      2.8054                 1.3049                 2.8725
 Frc consts  --      1.2869                 0.6093                 1.4073
 IR Inten    --     13.9482                28.7958                 5.7515

                     34                     35                     36
                      A                      A                      A
 Frequencies --    926.4155               944.9463               990.2506
 Red. masses --      2.2959                 2.3442                 2.9011
 Frc consts  --      1.1610                 1.2333                 1.6761
 IR Inten    --     20.9193                39.4662                 9.3978

                     37                     38                     39
                      A                      A                      A
 Frequencies --   1000.0354              1041.0572              1082.4498
 Red. masses --      1.4639                 3.1709                 3.9517
 Frc consts  --      0.8626                 2.0248                 2.7280
 IR Inten    --      4.2093                14.2761                45.3429

                     40                     41                     42
                      A                      A                      A
 Frequencies --   1086.6009              1104.7131              1130.8150
 Red. masses --      4.3295                 1.8075                 3.3654
 Frc consts  --      3.0118                 1.2997                 2.5355
 IR Inten    --     47.1138                56.5732                73.4365

                     43                     44                     45
                      A                      A                      A
 Frequencies --   1159.4697              1167.4451              1195.6749
 Red. masses --      3.6562                 3.0839                 4.2550
 Frc consts  --      2.8960                 2.4764                 3.5841
 IR Inten    --     95.7408                57.7791                 7.3264

                     46                     47                     48
                      A                      A                      A
 Frequencies --   1219.5770              1225.2951              1228.4720
 Red. masses --      1.2796                 1.3535                 2.2795
 Frc consts  --      1.1214                 1.1973                 2.0268
 IR Inten    --     28.3962                21.6511                 8.6611

                     49                     50                     51
                      A                      A                      A
 Frequencies --   1276.4198              1297.6304              1299.7485
 Red. masses --      1.2759                 1.4217                 1.2533
 Frc consts  --      1.2248                 1.4105                 1.2474
 IR Inten    --     10.2267                23.3729                10.5799

                     52                     53                     54
                      A                      A                      A
 Frequencies --   1328.8278              1335.1341              1347.9288
 Red. masses --      1.4687                 1.5609                 1.3617
 Frc consts  --      1.5280                 1.6394                 1.4577
 IR Inten    --    103.7256               140.2218                 1.8950

                     55                     56                     57
                      A                      A                      A
 Frequencies --   1350.5292              1362.8823              1380.9660
 Red. masses --      2.6264                 1.4594                 1.6615
 Frc consts  --      2.8225                 1.5971                 1.8669
 IR Inten    --     56.2838                 3.0241                19.5615

                     58                     59                     60
                      A                      A                      A
 Frequencies --   1390.5825              1409.9127              1423.9530
 Red. masses --      1.4642                 2.3087                 1.3564
 Frc consts  --      1.6682                 2.7039                 1.6204
 IR Inten    --     23.3048                25.1854               114.9724

                     61                     62                     63
                      A                      A                      A
 Frequencies --   1432.2263              1478.4121              1506.2986
 Red. masses --      1.7870                 1.0898                 3.2495
 Frc consts  --      2.1597                 1.4034                 4.3440
 IR Inten    --     45.1090                 2.6712               132.4467

                     64                     65                     66
                      A                      A                      A
 Frequencies --   1536.5761              1638.7031              1659.2766
 Red. masses --      1.6906                 6.6243                 5.4148
 Frc consts  --      2.3519                10.4807                 8.7836
 IR Inten    --    238.5532               192.0049               690.8113

                     67                     68                     69
                      A                      A                      A
 Frequencies --   1732.2951              2962.6142              3008.1860
 Red. masses --      9.6299                 1.0813                 1.0685
 Frc consts  --     17.0261                 5.5918                 5.6966
 IR Inten    --   1055.6508                38.4019                55.2353

                     70                     71                     72
                      A                      A                      A
 Frequencies --   3019.2380              3037.0500              3045.0164
 Red. masses --      1.0843                 1.0850                 1.0867
 Frc consts  --      5.8235                 5.8965                 5.9364
 IR Inten    --     27.3725                86.6214                90.7509

                     73                     74                     75
                      A                      A                      A
 Frequencies --   3103.3185              3117.5724              3153.1991
 Red. masses --      1.0958                 1.0746                 1.0891
 Frc consts  --      6.2178                 6.1536                 6.3802
 IR Inten    --     23.9249              1192.5834                45.6279

                     76                     77                     78
                      A                      A                      A
 Frequencies --   3637.4441              3663.3018              3791.6136
 Red. masses --      1.0770                 1.0649                 1.0653
 Frc consts  --      8.3961                 8.4201                 9.0238
 IR Inten    --     26.5118               105.8934                72.5967

 - Thermochemistry -
 -------------------
 Temperature   298.150 Kelvin.  Pressure   1.00000 Atm.
 Atom     1 has atomic number  6 and mass  12.00000

 Molecular mass:   243.06171 amu.
 Principal axes and moments of inertia in atomic units:
                           1         2         3
     Eigenvalues --  2040.292236045.470227514.40040
           X            0.99991  -0.01355   0.00093
           Y            0.01355   0.99990  -0.00356
           Z           -0.00088   0.00357   0.99999
 This molecule is an asymmetric top.
 Rotational symmetry number  1.
 Warning -- assumption of classical behavior for rotation
           may cause significant error
 Rotational temperatures (Kelvin)      0.04245     0.01433     0.01153
 Rotational constants (GHZ):           0.88455     0.29853     0.24017
 Zero-point vibrational energy     565565.7 (Joules/Mol)
                                  135.17344 (Kcal/Mol)
 Warning -- explicit consideration of  23 degrees of freedom as
           vibrations may cause significant error
 Vibrational temperatures:     44.39    63.63    94.74   132.09   181.04
          (Kelvin)            223.75   264.68   284.71   349.18   369.20
                              411.64   466.49   498.55   533.49   620.01
                              630.29   654.04   724.17   776.75   800.43
                              809.28   855.67   886.89   949.48  1007.32
                             1048.19  1052.01  1119.36  1163.85  1171.71
                             1269.54  1280.87  1311.98  1332.91  1359.57
                             1424.75  1438.83  1497.85  1557.40  1563.38
                             1589.44  1626.99  1668.22  1679.69  1720.31
                             1754.70  1762.93  1767.50  1836.48  1867.00
                             1870.05  1911.89  1920.96  1939.37  1943.11
                             1960.88  1986.90  2000.74  2028.55  2048.75
                             2060.65  2127.11  2167.23  2210.79  2357.73
                             2387.33  2492.39  4262.54  4328.11  4344.01
                             4369.64  4381.10  4464.98  4485.49  4536.75
                             5233.47  5270.67  5455.29

 Zero-point correction=                           0.215413 (Hartree/Particle)
 Thermal correction to Energy=                    0.229798
 Thermal correction to Enthalpy=                  0.230742
 Thermal correction to Gibbs Free Energy=         0.172882
 Sum of electronic and zero-point Energies=           -909.491500
 Sum of electronic and thermal Energies=              -909.477115
 Sum of electronic and thermal Enthalpies=            -909.476171
 Sum of electronic and thermal Free Energies=         -909.534031

                     E (Thermal)             CV                S
                      KCal/Mol        Cal/Mol-Kelvin    Cal/Mol-Kelvin
 Total                  144.200             55.240            121.778
 Electronic               0.000              0.000              0.000
 Translational            0.889              2.981             42.365
 Rotational               0.889              2.981             32.894
 Vibrational            142.423             49.278             46.518
 Vibration     1          0.594              1.984              5.774
 Vibration     2          0.595              1.980              5.060
 Vibration     3          0.597              1.971              4.274
 Vibration     4          0.602              1.955              3.621
 Vibration     5          0.611              1.927              3.009
 Vibration     6          0.620              1.897              2.604
 Vibration     7          0.631              1.862              2.288
 Vibration     8          0.637              1.843              2.153
 Vibration     9          0.659              1.775              1.783
 Vibration    10          0.666              1.752              1.685
 Vibration    11          0.684              1.699              1.497
 Vibration    12          0.709              1.627              1.289
 Vibration    13          0.725              1.582              1.182
 Vibration    14          0.743              1.532              1.077
 Vibration    15          0.792              1.403              0.856
 Vibration    16          0.798              1.387              0.833
 Vibration    17          0.813              1.351              0.782
 Vibration    18          0.859              1.243              0.650
 Vibration    19          0.895              1.162              0.566
 Vibration    20          0.912              1.126              0.531
 Vibration    21          0.918              1.112              0.519
 Vibration    22          0.952              1.043              0.459
 Vibration    23          0.976              0.997              0.422

 Optimization completed.
    -- Stationary point found.
 Normal termination of Gaussian 16 at Sun Oct 27 03:43:14 2024.
