 Gaussian 16, Revision C.01,
 Gaussian 16:  EM64L-G16RevC.01  3-Jul-2019

 ------------------------------------------------------
 # PBE1PBE/aug-cc-pVDZ opt freq EmpiricalDispersion=GD3
 ------------------------------------------------------

 ----
 blah
 ----
 Symbolic Z-matrix:
 Charge =  0 Multiplicity = 2

 SCF Done:  E(UPBE1PBE) =  -909.511172775     A.U. after   32 cycles
 SCF Done:  E(UPBE1PBE) =  -909.516030388     A.U. after   27 cycles
 SCF Done:  E(UPBE1PBE) =  -909.517078969     A.U. after   26 cycles
 SCF Done:  E(UPBE1PBE) =  -909.518504088     A.U. after   21 cycles
 SCF Done:  E(UPBE1PBE) =  -909.519311684     A.U. after   21 cycles
 SCF Done:  E(UPBE1PBE) =  -909.519896113     A.U. after   24 cycles
 SCF Done:  E(UPBE1PBE) =  -909.520320243     A.U. after   22 cycles
 SCF Done:  E(UPBE1PBE) =  -909.520679030     A.U. after   19 cycles
 SCF Done:  E(UPBE1PBE) =  -909.521009361     A.U. after   21 cycles
 SCF Done:  E(UPBE1PBE) =  -909.521242133     A.U. after   19 cycles
 SCF Done:  E(UPBE1PBE) =  -909.521854729     A.U. after   20 cycles
 SCF Done:  E(UPBE1PBE) =  -909.521977256     A.U. after   19 cycles
 SCF Done:  E(UPBE1PBE) =  -909.522022785     A.U. after   17 cycles
 SCF Done:  E(UPBE1PBE) =  -909.522041524     A.U. after   16 cycles
 SCF Done:  E(UPBE1PBE) =  -909.522045077     A.U. after   15 cycles
 SCF Done:  E(UPBE1PBE) =  -909.522047802     A.U. after   14 cycles
 SCF Done:  E(UPBE1PBE) =  -909.522048759     A.U. after   14 cycles
 SCF Done:  E(UPBE1PBE) =  -909.522049086     A.U. after   14 cycles
 SCF Done:  E(UPBE1PBE) =  -909.522049219     A.U. after   13 cycles
 Optimization completed.
    -- Stationary point found.
 Normal termination of Gaussian 16 at Mon Oct 28 10:03:21 2024.

 ----------------------------------------------------------------------
 #N Geom=AllCheck Guess=TCheck SCRF=Check GenChk UPBE1PBE/Aug-CC-pVDZ F
 req
 ----------------------------------------------------------------------

 Structure from the checkpoint file:  "/scr/Gau-39405.chk"
 ----
 blah
 ----
 Charge =  0 Multiplicity = 2

                         Standard orientation:
 ---------------------------------------------------------------------
 Center     Atomic      Atomic             Coordinates (Angstroms)
 Number     Number       Type             X           Y           Z
 ---------------------------------------------------------------------
      1          6           0       -2.111090   -0.286788    0.768176
      2          6           0       -1.212004   -1.379379    0.179847
      3          6           0       -0.438715   -0.604507   -0.894472
      4          8           0       -1.998923   -2.357865   -0.457866
      5          1           0       -0.541424   -1.836550    0.922881
      6          8           0       -1.213666    0.557422   -1.207609
      7          1           0       -0.368475   -1.248606   -1.784213
      8          6           0        0.948651   -0.188898   -0.485015
      9          6           0       -2.433634    0.545914   -0.463895
     10          1           0       -1.554905    0.329529    1.489518
     11          8           0       -3.303664   -0.799902    1.331639
     12          6           0       -2.848247    1.972915   -0.181599
     13          1           0       -3.227853    0.040079   -1.038744
     14          8           0       -1.891185    2.674146    0.588168
     15          1           0       -3.778792    1.958109    0.400549
     16          1           0       -3.049177    2.489336   -1.135074
     17          1           0       -3.165560   -0.955641    2.269911
     18          1           0       -2.796244   -2.464011    0.078375
     19          1           0       -1.054702    2.609363    0.116482
     20          6           0        1.413273    1.078870   -0.615505
     21          7           0        2.673670    1.432215   -0.223615
     22          6           0        3.510237    0.515005    0.397356
     23          7           0        2.918832   -0.692460    0.714991
     24          6           0        1.898225   -1.240843   -0.074707
     25          1           0        0.807453    1.856194   -1.077127
     26          1           0        3.088275    2.314244   -0.491133
     27          8           0        4.673671    0.757845    0.659521
     28          8           0        1.750480   -2.424654   -0.285374
 ---------------------------------------------------------------------

 SCF Done:  E(UPBE1PBE) =  -909.522049219     A.U. after    1 cycles

 The electronic state is 2-A.
 Alpha  occ. eigenvalues --  -19.26699 -19.26211 -19.24690 -19.24484 -19.23649
 Alpha  occ. eigenvalues --  -19.22969 -14.49000 -14.48220 -10.40460 -10.37320
 Alpha  occ. eigenvalues --  -10.33724 -10.31717 -10.30773 -10.30198 -10.30194
 Alpha  occ. eigenvalues --  -10.29457 -10.28766  -1.14167  -1.11983  -1.10524
 Alpha  occ. eigenvalues --   -1.09532  -1.07494  -1.06486  -1.04032  -0.97219
 Alpha  occ. eigenvalues --   -0.86929  -0.82058  -0.79877  -0.73401  -0.70700
 Alpha  occ. eigenvalues --   -0.69806  -0.65449  -0.63229  -0.61005  -0.59546
 Alpha  occ. eigenvalues --   -0.57919  -0.55584  -0.54745  -0.53027  -0.51990
 Alpha  occ. eigenvalues --   -0.51513  -0.50424  -0.50130  -0.49046  -0.47934
 Alpha  occ. eigenvalues --   -0.47009  -0.45192  -0.44262  -0.43577  -0.42675
 Alpha  occ. eigenvalues --   -0.40997  -0.40460  -0.38079  -0.37890  -0.37399
 Alpha  occ. eigenvalues --   -0.36644  -0.34771  -0.33099  -0.32879  -0.31600
 Alpha  occ. eigenvalues --   -0.30816  -0.29996  -0.29444  -0.27924
 Alpha virt. eigenvalues --   -0.06593  -0.02530  -0.01841  -0.01289   0.00081
 Alpha virt. eigenvalues --    0.00820   0.01073   0.02000   0.02598   0.03161
 Alpha virt. eigenvalues --    0.03883   0.04469   0.05055   0.05376   0.05754

  Beta  occ. eigenvalues --  -19.26698 -19.26197 -19.24483 -19.24181 -19.23649
  Beta  occ. eigenvalues --  -19.22899 -14.48988 -14.46548 -10.40603 -10.37383
  Beta  occ. eigenvalues --  -10.33631 -10.31698 -10.30772 -10.30195 -10.30192
  Beta  occ. eigenvalues --  -10.29457 -10.28643  -1.13191  -1.11951  -1.10166
  Beta  occ. eigenvalues --   -1.09515  -1.07488  -1.06482  -1.03428  -0.94300
  Beta  occ. eigenvalues --   -0.86509  -0.82040  -0.79736  -0.73188  -0.70045
  Beta  occ. eigenvalues --   -0.69309  -0.65243  -0.63074  -0.60762  -0.59105
  Beta  occ. eigenvalues --   -0.57865  -0.55508  -0.54700  -0.52358  -0.51668
  Beta  occ. eigenvalues --   -0.50914  -0.50399  -0.49959  -0.48359  -0.47399
  Beta  occ. eigenvalues --   -0.46719  -0.44988  -0.44179  -0.43313  -0.42473
  Beta  occ. eigenvalues --   -0.40836  -0.39494  -0.37896  -0.37672  -0.36815
  Beta  occ. eigenvalues --   -0.34827  -0.32900  -0.32033  -0.31516  -0.30709
  Beta  occ. eigenvalues --   -0.29927  -0.29260  -0.27669
  Beta virt. eigenvalues --   -0.18436  -0.05448  -0.02478  -0.01835  -0.00794
  Beta virt. eigenvalues --    0.00095   0.00841   0.01225   0.02019   0.02646
  Beta virt. eigenvalues --    0.03165   0.03906   0.04482   0.05159   0.05397

 Mulliken charges and spin densities:
               1          2
     1  C    0.583359   0.001916
     2  C    1.206665   0.009146
     3  C    0.757919  -0.003735
     4  O   -0.705812  -0.000305
     5  H   -0.521078   0.001665
     6  O   -0.811131   0.004469
     7  H   -0.320817   0.002158
     8  C    0.589154   0.065277
     9  C    0.680013  -0.000490
    10  H   -0.455543   0.000661
    11  O   -0.632655   0.000357
    12  C    1.213082  -0.000311
    13  H   -0.524257   0.000030
    14  O   -0.533296   0.000382
    15  H   -0.255123   0.000058
    16  H   -0.196701   0.000009
    17  H    0.155392  -0.000049
    18  H    0.154337   0.000037
    19  H    0.137464  -0.000235
    20  C    1.157441   0.073354
    21  N   -0.455882   0.010782
    22  C    0.799756  -0.126167
    23  N   -0.555206   0.872640
    24  C    0.537922  -0.128196
    25  H   -0.707222  -0.002565
    26  H   -0.087279   0.000540
    27  O   -0.555568   0.183865
    28  O   -0.654934   0.034707
 Sum of Mulliken charges =  -0.00000   1.00000

 Dipole moment (field-independent basis, Debye):
    X=             -3.1142    Y=              3.9353    Z=             -0.2126  Tot=              5.0229
 Quadrupole moment (field-independent basis, Debye-Ang):
   XX=           -112.6717   YY=           -105.7829   ZZ=            -94.6431
   XY=             11.1537   XZ=            -10.6367   YZ=             -9.9804

  Exact polarizability:     190.268       9.537     157.831      13.178      -3.902     107.266
 Approx polarizability:     242.330      23.834     247.970      24.017      -4.188     167.121

                      1                      2                      3
                      A                      A                      A
 Frequencies --     27.4124                37.2576                70.8976
 Red. masses --      6.7364                 9.1127                 6.8188
 Frc consts  --      0.0030                 0.0075                 0.0202
 IR Inten    --      3.1461                 0.4773                 7.5245

                      4                      5                      6
                      A                      A                      A
 Frequencies --     83.7074               107.6376               131.9369
 Red. masses --      5.7554                 4.9638                 7.0736
 Frc consts  --      0.0238                 0.0339                 0.0725
 IR Inten    --      5.2330                 2.7597                 5.6557

                      7                      8                      9
                      A                      A                      A
 Frequencies --    145.6426               181.1392               228.1166
 Red. masses --     11.9727                 5.6702                 3.0834
 Frc consts  --      0.1496                 0.1096                 0.0945
 IR Inten    --      1.8469                 4.8117                 2.2571

                     10                     11                     12
                      A                      A                      A
 Frequencies --    229.9595               251.1567               268.4114
 Red. masses --      2.0344                 1.7988                 4.5437
 Frc consts  --      0.0634                 0.0669                 0.1929
 IR Inten    --     12.8224                11.2526                35.0254

                     13                     14                     15
                      A                      A                      A
 Frequencies --    282.1336               314.1236               322.4158
 Red. masses --      3.0342                 5.3893                 3.3751
 Frc consts  --      0.1423                 0.3133                 0.2067
 IR Inten    --     18.2836                 4.8535                24.5148

                     16                     17                     18
                      A                      A                      A
 Frequencies --    347.0456               364.6740               415.0977
 Red. masses --      1.9600                 4.4688                 3.3953
 Frc consts  --      0.1391                 0.3502                 0.3447
 IR Inten    --     96.1381                 6.8094                 6.7879

                     19                     20                     21
                      A                      A                      A
 Frequencies --    437.1859               455.4140               467.7894
 Red. masses --      8.4106                 2.4152                 1.6166
 Frc consts  --      0.9471                 0.2951                 0.2084
 IR Inten    --     51.8660                49.0540                83.7120

                     22                     23                     24
                      A                      A                      A
 Frequencies --    519.2652               568.9316               577.8087
 Red. masses --      2.8971                 2.5373                 2.1960
 Frc consts  --      0.4602                 0.4839                 0.4320
 IR Inten    --     13.7928                23.2275                44.3299

                     25                     26                     27
                      A                      A                      A
 Frequencies --    591.2673               640.7791               706.5779
 Red. masses --      6.1395                 4.8460                 5.5498
 Frc consts  --      1.2646                 1.1723                 1.6325
 IR Inten    --      1.8460                15.9871                10.4288

                     28                     29                     30
                      A                      A                      A
 Frequencies --    728.1875               742.9007               769.1171
 Red. masses --      7.2309                 8.4066                 5.8548
 Frc consts  --      2.2591                 2.7336                 2.0406
 IR Inten    --      4.3811                29.0633                 4.7854

                     31                     32                     33
                      A                      A                      A
 Frequencies --    788.0367               853.1531               880.3658
 Red. masses --      8.6181                 6.5409                 2.5320
 Frc consts  --      3.1532                 2.8051                 1.1562
 IR Inten    --      2.5588                18.0000                 2.9693

                     34                     35                     36
                      A                      A                      A
 Frequencies --    889.8655               910.2916               951.1787
 Red. masses --      2.5485                 2.7514                 1.8414
 Frc consts  --      1.1890                 1.3433                 0.9816
 IR Inten    --     28.7836                 9.0768                52.7935

                     37                     38                     39
                      A                      A                      A
 Frequencies --    975.2454              1007.3276              1053.7998
 Red. masses --      2.8938                 2.1204                 2.7406
 Frc consts  --      1.6216                 1.2677                 1.7931
 IR Inten    --     49.1964                23.0769                42.0136

                     40                     41                     42
                      A                      A                      A
 Frequencies --   1069.5752              1084.2183              1102.2030
 Red. masses --      4.1481                 2.7252                 2.0080
 Frc consts  --      2.7959                 1.8875                 1.4373
 IR Inten    --     44.7592                47.7880                33.8462

                     43                     44                     45
                      A                      A                      A
 Frequencies --   1134.7574              1150.0039              1158.0197
 Red. masses --      3.3073                 3.2760                 3.0765
 Frc consts  --      2.5091                 2.5526                 2.4307
 IR Inten    --     15.1989               140.1037               102.4708

                     46                     47                     48
                      A                      A                      A
 Frequencies --   1181.0112              1196.2752              1211.9770
 Red. masses --      2.1169                 1.9337                 1.3132
 Frc consts  --      1.7396                 1.6304                 1.1365
 IR Inten    --     42.6044                50.2477                 0.8439

                     49                     50                     51
                      A                      A                      A
 Frequencies --   1215.9495              1245.8700              1273.2860
 Red. masses --      1.6361                 1.4279                 1.7455
 Frc consts  --      1.4253                 1.3059                 1.6674
 IR Inten    --     57.4332                20.7479                20.5600

                     52                     53                     54
                      A                      A                      A
 Frequencies --   1284.7262              1308.8868              1322.6875
 Red. masses --      1.3129                 1.5748                 1.7066
 Frc consts  --      1.2768                 1.5895                 1.7592
 IR Inten    --      4.3784                40.6846                19.8364

                     55                     56                     57
                      A                      A                      A
 Frequencies --   1331.6163              1346.7166              1355.6434
 Red. masses --      1.5804                 1.4951                 1.6420
 Frc consts  --      1.6511                 1.5977                 1.7779
 IR Inten    --      8.0284                14.3603                51.1646

                     58                     59                     60
                      A                      A                      A
 Frequencies --   1364.7152              1376.2380              1409.6531
 Red. masses --      1.3811                 1.3500                 1.4553
 Frc consts  --      1.5155                 1.5065                 1.7039
 IR Inten    --     51.8744                 3.5465                28.1928

                     61                     62                     63
                      A                      A                      A
 Frequencies --   1419.5469              1453.8447              1474.9542
 Red. masses --      1.6751                 1.7925                 1.0811
 Frc consts  --      1.9888                 2.2322                 1.3857
 IR Inten    --      1.2691                 1.7161                 4.7939

                     64                     65                     66
                      A                      A                      A
 Frequencies --   1484.1324              1663.8792              1682.6537
 Red. masses --      2.3829                 8.5054                 7.5445
 Frc consts  --      3.0925                13.8736                12.5855
 IR Inten    --     33.2419               360.7975               337.8589

                     67                     68                     69
                      A                      A                      A
 Frequencies --   1745.9300              3035.6138              3051.2752
 Red. masses --     12.9639                 1.0701                 1.0818
 Frc consts  --     23.2830                 5.8097                 5.9340
 IR Inten    --    409.5288                21.1416                59.6695

                     70                     71                     72
                      A                      A                      A
 Frequencies --   3067.2908              3068.7577              3085.3463
 Red. masses --      1.0853                 1.0852                 1.0873
 Frc consts  --      6.0159                 6.0210                 6.0981
 IR Inten    --      7.2157                12.2704                35.0761

                     73                     74                     75
                      A                      A                      A
 Frequencies --   3128.3878              3237.4410              3652.1876
 Red. masses --      1.0979                 1.0935                 1.0792
 Frc consts  --      6.3306                 6.7524                 8.4814
 IR Inten    --     12.5661                 0.1761               109.5058

                     76                     77                     78
                      A                      A                      A
 Frequencies --   3792.8733              3863.4251              3887.5856
 Red. masses --      1.0654                 1.0654                 1.0670
 Frc consts  --      9.0301                 9.3690                 9.5009
 IR Inten    --     73.2978                37.1335                63.0705

 - Thermochemistry -
 -------------------
 Temperature   298.150 Kelvin.  Pressure   1.00000 Atm.
 Atom     1 has atomic number  6 and mass  12.00000

 Molecular mass:   243.06171 amu.
 Principal axes and moments of inertia in atomic units:
                           1         2         3
     Eigenvalues --  2253.633615684.083717070.55095
           X            0.99999   0.00124  -0.00499
           Y           -0.00132   0.99987  -0.01598
           Z            0.00497   0.01598   0.99986
 This molecule is an asymmetric top.
 Rotational symmetry number  1.
 Warning -- assumption of classical behavior for rotation
           may cause significant error
 Rotational temperatures (Kelvin)      0.03843     0.01524     0.01225
 Rotational constants (GHZ):           0.80081     0.31751     0.25525
 Zero-point vibrational energy     557713.5 (Joules/Mol)
                                  133.29672 (Kcal/Mol)
 Warning -- explicit consideration of  25 degrees of freedom as
           vibrations may cause significant error
 Vibrational temperatures:     39.44    53.61   102.01   120.44   154.87
          (Kelvin)            189.83   209.55   260.62   328.21   330.86
                              361.36   386.18   405.93   451.95   463.88
                              499.32   524.68   597.23   629.01   655.24
                              673.04   747.11   818.57   831.34   850.70
                              921.94  1016.61  1047.70  1068.87  1106.59
                             1133.81  1227.50  1266.65  1280.32  1309.71
                             1368.53  1403.16  1449.32  1516.18  1538.88
                             1559.95  1585.82  1632.66  1654.60  1666.13
                             1699.21  1721.17  1743.76  1749.48  1792.53
                             1831.97  1848.43  1883.20  1903.05  1915.90
                             1937.62  1950.47  1963.52  1980.10  2028.18
                             2042.41  2091.76  2122.13  2135.34  2393.95
                             2420.96  2512.00  4367.57  4390.10  4413.15
                             4415.26  4439.13  4501.05  4657.96  5254.68
                             5457.10  5558.61  5593.37

 Zero-point correction=                           0.212422 (Hartree/Particle)
 Thermal correction to Energy=                    0.228274
 Thermal correction to Enthalpy=                  0.229218
 Thermal correction to Gibbs Free Energy=         0.167632
 Sum of electronic and zero-point Energies=           -909.309627
 Sum of electronic and thermal Energies=              -909.293775
 Sum of electronic and thermal Enthalpies=            -909.292831
 Sum of electronic and thermal Free Energies=         -909.354417

                     E (Thermal)             CV                S
                      KCal/Mol        Cal/Mol-Kelvin    Cal/Mol-Kelvin
 Total                  143.244             59.285            129.618
 Electronic               0.000              0.000              1.377
 Translational            0.889              2.981             42.365
 Rotational               0.889              2.981             32.871
 Vibrational            141.467             53.323             53.005
 Vibration     1          0.593              1.984              6.008
 Vibration     2          0.594              1.982              5.400
 Vibration     3          0.598              1.968              4.128
 Vibration     4          0.601              1.960              3.802
 Vibration     5          0.606              1.943              3.311
 Vibration     6          0.612              1.921              2.918
 Vibration     7          0.617              1.907              2.728
 Vibration     8          0.630              1.865              2.317
 Vibration     9          0.651              1.798              1.894
 Vibration    10          0.652              1.795              1.879
 Vibration    11          0.663              1.761              1.722
 Vibration    12          0.673              1.731              1.606
 Vibration    13          0.681              1.707              1.521
 Vibration    14          0.702              1.647              1.341
 Vibration    15          0.707              1.631              1.298
 Vibration    16          0.725              1.581              1.180
 Vibration    17          0.738              1.545              1.102
 Vibration    18          0.778              1.437              0.909
 Vibration    19          0.797              1.389              0.835
 Vibration    20          0.814              1.349              0.780
 Vibration    21          0.825              1.322              0.744
 Vibration    22          0.874              1.207              0.612
 Vibration    23          0.925              1.098              0.506
 Vibration    24          0.934              1.079              0.489
 Vibration    25          0.949              1.050              0.465

 Optimization completed.
    -- Stationary point found.
 Normal termination of Gaussian 16 at Mon Oct 28 10:28:46 2024.
