 Gaussian 16, Revision C.01,
 Gaussian 16:  EM64L-G16RevC.01  3-Jul-2019

 ------------------------------------------------------
 # PBE1PBE/aug-cc-pVDZ opt freq EmpiricalDispersion=GD3
 ------------------------------------------------------

 ----
 blah
 ----
 Symbolic Z-matrix:
 Charge =  0 Multiplicity = 2

 SCF Done:  E(UPBE1PBE) =  -909.547550541     A.U. after   21 cycles
 SCF Done:  E(UPBE1PBE) =  -909.554212694     A.U. after   18 cycles
 SCF Done:  E(UPBE1PBE) =  -909.555472123     A.U. after   19 cycles
 SCF Done:  E(UPBE1PBE) =  -909.556122719     A.U. after   18 cycles
 SCF Done:  E(UPBE1PBE) =  -909.557056203     A.U. after   20 cycles
 SCF Done:  E(UPBE1PBE) =  -909.557395115     A.U. after   20 cycles
 SCF Done:  E(UPBE1PBE) =  -909.557667273     A.U. after   16 cycles
 SCF Done:  E(UPBE1PBE) =  -909.557776262     A.U. after   16 cycles
 SCF Done:  E(UPBE1PBE) =  -909.557821927     A.U. after   15 cycles
 SCF Done:  E(UPBE1PBE) =  -909.557899576     A.U. after   18 cycles
 SCF Done:  E(UPBE1PBE) =  -909.557907652     A.U. after   13 cycles
 SCF Done:  E(UPBE1PBE) =  -909.557911308     A.U. after   13 cycles
 SCF Done:  E(UPBE1PBE) =  -909.557912042     A.U. after   12 cycles
 SCF Done:  E(UPBE1PBE) =  -909.557912226     A.U. after   11 cycles
 SCF Done:  E(UPBE1PBE) =  -909.557912295     A.U. after    9 cycles
 SCF Done:  E(UPBE1PBE) =  -909.557912347     A.U. after    8 cycles
 SCF Done:  E(UPBE1PBE) =  -909.557912380     A.U. after    8 cycles
 Optimization completed.
    -- Stationary point found.
 Normal termination of Gaussian 16 at Mon Oct 28 08:57:55 2024.

 ----------------------------------------------------------------------
 #N Geom=AllCheck Guess=TCheck SCRF=Check GenChk UPBE1PBE/Aug-CC-pVDZ F
 req
 ----------------------------------------------------------------------

 Structure from the checkpoint file:  "/scr/Gau-34389.chk"
 ----
 blah
 ----
 Charge =  0 Multiplicity = 2

                         Standard orientation:
 ---------------------------------------------------------------------
 Center     Atomic      Atomic             Coordinates (Angstroms)
 Number     Number       Type             X           Y           Z
 ---------------------------------------------------------------------
      1          6           0        2.118791   -0.204511   -0.821031
      2          6           0        1.139099   -1.341225   -0.490936
      3          6           0        0.387889   -0.751241    0.722793
      4          8           0        1.841443   -2.485319   -0.078875
      5          1           0        0.455800   -1.575715   -1.323622
      6          8           0        1.209935    0.288201    1.254583
      7          1           0        0.262467   -1.559826    1.457764
      8          6           0       -0.954837   -0.216536    0.360243
      9          6           0        2.456886    0.317871    0.567258
     10          1           0        1.619682    0.588799   -1.397368
     11          8           0        3.286005   -0.667949   -1.469716
     12          6           0        3.022381    1.720933    0.611620
     13          1           0        3.177774   -0.374651    1.036462
     14          8           0        2.140638    2.684030    0.066960
     15          1           0        3.938475    1.739423    0.005961
     16          1           0        3.298340    1.973639    1.647503
     17          1           0        3.171525   -0.592538   -2.421025
     18          1           0        2.648656   -2.520939   -0.610757
     19          1           0        1.453683    2.845434    0.720412
     20          6           0       -1.175261    1.111451   -0.056636
     21          7           0       -2.334137    1.612984   -0.420778
     22          6           0       -3.460047    0.782949   -0.377909
     23          7           0       -3.285449   -0.543690    0.009101
     24          6           0       -2.098711   -1.133610    0.386597
     25          1           0       -0.317012    1.785542   -0.101914
     26          1           0       -4.116699   -1.123889    0.019269
     27          8           0       -4.564597    1.192369   -0.675006
     28          8           0       -2.022515   -2.309685    0.706688
 ---------------------------------------------------------------------

 SCF Done:  E(UPBE1PBE) =  -909.557912380     A.U. after    1 cycles

 The electronic state is 2-A.
 Alpha  occ. eigenvalues --  -19.27570 -19.26582 -19.24993 -19.24717 -19.23744
 Alpha  occ. eigenvalues --  -19.23244 -14.46975 -14.44671 -10.38867 -10.37742
 Alpha  occ. eigenvalues --  -10.32313 -10.32158 -10.31810 -10.31757 -10.31543
 Alpha  occ. eigenvalues --  -10.30640 -10.29979  -1.13098  -1.12673  -1.10892
 Alpha  occ. eigenvalues --   -1.10332  -1.08114  -1.07482  -1.01684  -0.96733
 Alpha  occ. eigenvalues --   -0.87446  -0.82856  -0.79599  -0.73327  -0.71400
 Alpha  occ. eigenvalues --   -0.68792  -0.65678  -0.63755  -0.60337  -0.59211
 Alpha  occ. eigenvalues --   -0.58366  -0.55851  -0.55705  -0.53277  -0.52114
 Alpha  occ. eigenvalues --   -0.51702  -0.51016  -0.50232  -0.48331  -0.47380
 Alpha  occ. eigenvalues --   -0.46985  -0.45556  -0.45076  -0.44601  -0.42911
 Alpha  occ. eigenvalues --   -0.41499  -0.40128  -0.38782  -0.38702  -0.36806
 Alpha  occ. eigenvalues --   -0.34306  -0.33677  -0.33068  -0.32444  -0.32127
 Alpha  occ. eigenvalues --   -0.31257  -0.31039  -0.30148  -0.28310
 Alpha virt. eigenvalues --   -0.05952  -0.02564  -0.01576  -0.00812  -0.00219
 Alpha virt. eigenvalues --    0.00413   0.01748   0.02105   0.02717   0.03165
 Alpha virt. eigenvalues --    0.03622   0.03976   0.04960   0.05706   0.05767

  Beta  occ. eigenvalues --  -19.27561 -19.26552 -19.24993 -19.24714 -19.23390
  Beta  occ. eigenvalues --  -19.22779 -14.47008 -14.43888 -10.38996 -10.37857
  Beta  occ. eigenvalues --  -10.32445 -10.32368 -10.31754 -10.31701 -10.30643
  Beta  occ. eigenvalues --  -10.30624 -10.29979  -1.12751  -1.12405  -1.10340
  Beta  occ. eigenvalues --   -1.10150  -1.08096  -1.07458  -1.00805  -0.96074
  Beta  occ. eigenvalues --   -0.85992  -0.82789  -0.78958  -0.73242  -0.71263
  Beta  occ. eigenvalues --   -0.68492  -0.65489  -0.63656  -0.60068  -0.58911
  Beta  occ. eigenvalues --   -0.58224  -0.55760  -0.55600  -0.53040  -0.51717
  Beta  occ. eigenvalues --   -0.51092  -0.50584  -0.50067  -0.47919  -0.46972
  Beta  occ. eigenvalues --   -0.46723  -0.45283  -0.44553  -0.43336  -0.42559
  Beta  occ. eigenvalues --   -0.41450  -0.39032  -0.38740  -0.37393  -0.36624
  Beta  occ. eigenvalues --   -0.33861  -0.33067  -0.32098  -0.31701  -0.31343
  Beta  occ. eigenvalues --   -0.30881  -0.30838  -0.29593
  Beta virt. eigenvalues --   -0.17556  -0.04617  -0.02554  -0.00836  -0.00188
  Beta virt. eigenvalues --    0.00384   0.00442   0.01766   0.02138   0.02786
  Beta virt. eigenvalues --    0.03180   0.03647   0.04031   0.04977   0.05755

 Mulliken charges and spin densities:
               1          2
     1  C    0.508865   0.013688
     2  C    1.020189   0.045331
     3  C    0.967652  -0.092037
     4  O   -0.687259  -0.000122
     5  H   -0.463789  -0.011773
     6  O   -0.843138   0.005552
     7  H   -0.439272   0.017989
     8  C    0.671285   0.919975
     9  C    0.970763  -0.003017
    10  H   -0.459985   0.002529
    11  O   -0.633387   0.001892
    12  C    1.023519   0.000381
    13  H   -0.527219  -0.000213
    14  O   -0.524833   0.000082
    15  H   -0.263871  -0.000072
    16  H   -0.195604  -0.000006
    17  H    0.164017  -0.000035
    18  H    0.159847   0.002297
    19  H    0.184491  -0.000081
    20  C    0.899211  -0.354940
    21  N   -0.589810   0.400025
    22  C    0.821200  -0.083654
    23  N   -0.339054  -0.014900
    24  C    0.561562  -0.147796
    25  H   -0.628850  -0.004609
    26  H   -0.058625  -0.000314
    27  O   -0.568149   0.175365
    28  O   -0.729755   0.128462
 Sum of Mulliken charges =  -0.00000   1.00000

 Dipole moment (field-independent basis, Debye):
    X=              4.3245    Y=             -0.4398    Z=             -1.0051  Tot=              4.4615
 Quadrupole moment (field-independent basis, Debye-Ang):
   XX=           -107.3911   YY=           -114.5922   ZZ=            -91.4791
   XY=              7.7556   XZ=             -6.9567   YZ=             10.0417

  Exact polarizability:     196.633     -15.451     149.007       9.949      -9.037     105.306
 Approx polarizability:     249.961     -34.070     225.852      19.459     -23.730     162.871

                      1                      2                      3
                      A                      A                      A
 Frequencies --     18.9305                40.4309                47.6914
 Red. masses --      7.6438                 6.6182                 7.4079
 Frc consts  --      0.0016                 0.0064                 0.0099
 IR Inten    --      0.2127                 0.0560                 1.0327

                      4                      5                      6
                      A                      A                      A
 Frequencies --     91.2024                99.7599               132.2386
 Red. masses --      4.8035                 5.9289                 8.0097
 Frc consts  --      0.0235                 0.0348                 0.0825
 IR Inten    --     13.0832                 2.8362                 3.1007

                      7                      8                      9
                      A                      A                      A
 Frequencies --    143.5500               173.9188               228.1827
 Red. masses --      9.3122                 7.0712                 2.4140
 Frc consts  --      0.1131                 0.1260                 0.0741
 IR Inten    --      8.7955                 1.8923                 3.7649

                     10                     11                     12
                      A                      A                      A
 Frequencies --    230.8292               251.7410               265.2483
 Red. masses --      1.9065                 4.7339                 2.6899
 Frc consts  --      0.0599                 0.1768                 0.1115
 IR Inten    --      4.8816                 1.0088                25.3793

                     13                     14                     15
                      A                      A                      A
 Frequencies --    287.3893               308.6205               332.9616
 Red. masses --      3.0494                 5.4685                 4.5413
 Frc consts  --      0.1484                 0.3069                 0.2966
 IR Inten    --     30.3789                 1.0141                 5.6612

                     16                     17                     18
                      A                      A                      A
 Frequencies --    346.4597               397.2822               410.7321
 Red. masses --      1.4173                 3.0015                 6.8142
 Frc consts  --      0.1002                 0.2791                 0.6773
 IR Inten    --    164.4139                42.6434                 6.0243

                     19                     20                     21
                      A                      A                      A
 Frequencies --    455.4143               459.7242               532.1665
 Red. masses --      2.9626                 1.3092                 8.9023
 Frc consts  --      0.3620                 0.1630                 1.4854
 IR Inten    --     28.8659               111.4053                14.5166

                     22                     23                     24
                      A                      A                      A
 Frequencies --    571.7376               581.9960               615.8261
 Red. masses --      6.5451                 6.9768                 6.0623
 Frc consts  --      1.2606                 1.3923                 1.3546
 IR Inten    --     20.4412                 9.5810                17.0629

                     25                     26                     27
                      A                      A                      A
 Frequencies --    637.3793               710.5492               718.2799
 Red. masses --      5.1249                 1.3325                 3.6612
 Frc consts  --      1.2267                 0.3964                 1.1129
 IR Inten    --     10.2227                66.0300                10.7819

                     28                     29                     30
                      A                      A                      A
 Frequencies --    744.6052               751.6916               782.9483
 Red. masses --      8.6083                 5.2968                 8.0936
 Frc consts  --      2.8120                 1.7634                 2.9232
 IR Inten    --      0.7554                 0.2777                 1.1934

                     31                     32                     33
                      A                      A                      A
 Frequencies --    793.9503               848.2725               869.6009
 Red. masses --      8.6384                 5.2841                 2.2868
 Frc consts  --      3.2083                 2.2402                 1.0189
 IR Inten    --     45.4598                15.2001                 3.6734

                     34                     35                     36
                      A                      A                      A
 Frequencies --    898.8719               947.2753               969.6756
 Red. masses --      2.5817                 3.3872                 2.7124
 Frc consts  --      1.2290                 1.7908                 1.5026
 IR Inten    --     19.0105                 6.7274                28.3290

                     37                     38                     39
                      A                      A                      A
 Frequencies --    983.2959              1002.4022              1053.9141
 Red. masses --      1.8178                 1.6960                 3.2031
 Frc consts  --      1.0355                 1.0040                 2.0962
 IR Inten    --      9.0415                10.4149                45.7910

                     40                     41                     42
                      A                      A                      A
 Frequencies --   1073.8945              1093.4885              1129.3982
 Red. masses --      3.5366                 1.9005                 3.3863
 Frc consts  --      2.4030                 1.3389                 2.5449
 IR Inten    --     86.4650                44.4904                 9.3513

                     43                     44                     45
                      A                      A                      A
 Frequencies --   1144.1577              1159.8839              1183.2785
 Red. masses --      2.9242                 2.7954                 1.7453
 Frc consts  --      2.2554                 2.2157                 1.4398
 IR Inten    --     97.6250               152.9078                20.5449

                     46                     47                     48
                      A                      A                      A
 Frequencies --   1204.0831              1209.6117              1233.4636
 Red. masses --      1.3721                 1.5220                 2.5132
 Frc consts  --      1.1720                 1.3120                 2.2528
 IR Inten    --     12.4194                54.0173                96.3564

                     49                     50                     51
                      A                      A                      A
 Frequencies --   1251.3498              1260.2013              1306.7007
 Red. masses --      1.3671                 1.4458                 1.4562
 Frc consts  --      1.2613                 1.3528                 1.4649
 IR Inten    --     27.6545                20.0515                38.2990

                     52                     53                     54
                      A                      A                      A
 Frequencies --   1310.9767              1326.7448              1352.6268
 Red. masses --      1.8274                 1.4594                 1.5306
 Frc consts  --      1.8505                 1.5135                 1.6499
 IR Inten    --      6.1944                12.0124                27.0089

                     55                     56                     57
                      A                      A                      A
 Frequencies --   1355.9995              1372.6187              1381.5942
 Red. masses --      1.5526                 1.4221                 1.7141
 Frc consts  --      1.6820                 1.5786                 1.9278
 IR Inten    --     54.9309                 4.0338                19.3756

                     58                     59                     60
                      A                      A                      A
 Frequencies --   1385.9301              1401.9967              1406.4472
 Red. masses --      2.0998                 1.4863                 1.8028
 Frc consts  --      2.3763                 1.7213                 2.1011
 IR Inten    --     25.2822                22.2135                 2.3165

                     61                     62                     63
                      A                      A                      A
 Frequencies --   1413.3488              1450.1462              1456.7621
 Red. masses --      2.0003                 1.9468                 3.1324
 Frc consts  --      2.3541                 2.4121                 3.9165
 IR Inten    --     18.6257                18.8961                96.9644

                     64                     65                     66
                      A                      A                      A
 Frequencies --   1471.0698              1518.2161              1740.0728
 Red. masses --      1.0819                 4.8863                 8.0646
 Frc consts  --      1.3795                 6.6359                14.3870
 IR Inten    --      6.1960                25.0631               421.7474

                     67                     68                     69
                      A                      A                      A
 Frequencies --   1750.2266              3032.1067              3040.2485
 Red. masses --     12.9664                 1.0804                 1.0858
 Frc consts  --     23.4023                 5.8523                 5.9133
 IR Inten    --     91.7820                15.8228                26.9209

                     70                     71                     72
                      A                      A                      A
 Frequencies --   3055.2064              3079.1557              3081.1780
 Red. masses --      1.0679                 1.0863                 1.0844
 Frc consts  --      5.8728                 6.0682                 6.0656
 IR Inten    --     56.5914                32.8639                 2.3295

                     73                     74                     75
                      A                      A                      A
 Frequencies --   3124.5309              3188.3911              3616.6036
 Red. masses --      1.1019                 1.0911                 1.0779
 Frc consts  --      6.3383                 6.5351                 8.3065
 IR Inten    --     12.5794                 0.2583                74.5330

                     76                     77                     78
                      A                      A                      A
 Frequencies --   3783.9031              3874.2192              3886.6962
 Red. masses --      1.0653                 1.0664                 1.0670
 Frc consts  --      8.9868                 9.4308                 9.4970
 IR Inten    --     75.8811                33.6444                69.0158

 - Thermochemistry -
 -------------------
 Temperature   298.150 Kelvin.  Pressure   1.00000 Atm.
 Atom     1 has atomic number  6 and mass  12.00000

 Molecular mass:   243.06171 amu.
 Principal axes and moments of inertia in atomic units:
                           1         2         3
     Eigenvalues --  2254.947295810.972227174.96507
           X            0.99993   0.01170  -0.00137
           Y           -0.01168   0.99978   0.01730
           Z            0.00157  -0.01728   0.99985
 This molecule is an asymmetric top.
 Rotational symmetry number  1.
 Warning -- assumption of classical behavior for rotation
           may cause significant error
 Rotational temperatures (Kelvin)      0.03841     0.01491     0.01207
 Rotational constants (GHZ):           0.80035     0.31057     0.25153
 Zero-point vibrational energy     561307.4 (Joules/Mol)
                                  134.15570 (Kcal/Mol)
 Warning -- explicit consideration of  24 degrees of freedom as
           vibrations may cause significant error
 Vibrational temperatures:     27.24    58.17    68.62   131.22   143.53
          (Kelvin)            190.26   206.54   250.23   328.30   332.11
                              362.20   381.63   413.49   444.04   479.06
                              498.48   571.60   590.95   655.24   661.44
                              765.67   822.60   837.36   886.04   917.05
                             1022.32  1033.44  1071.32  1081.52  1126.49
                             1142.32  1220.47  1251.16  1293.28  1362.92
                             1395.15  1414.74  1442.23  1516.35  1545.09
                             1573.29  1624.95  1646.19  1668.81  1702.47
                             1732.41  1740.36  1774.68  1800.41  1813.15
                             1880.05  1886.20  1908.89  1946.13  1950.98
                             1974.89  1987.81  1994.04  2017.16  2023.56
                             2033.49  2086.44  2095.96  2116.54  2184.37
                             2503.58  2518.19  4362.53  4374.24  4395.76
                             4430.22  4433.13  4495.50  4587.38  5203.49
                             5444.19  5574.14  5592.09

 Zero-point correction=                           0.213791 (Hartree/Particle)
 Thermal correction to Energy=                    0.229446
 Thermal correction to Enthalpy=                  0.230390
 Thermal correction to Gibbs Free Energy=         0.168525
 Sum of electronic and zero-point Energies=           -909.344122
 Sum of electronic and thermal Energies=              -909.328467
 Sum of electronic and thermal Enthalpies=            -909.327523
 Sum of electronic and thermal Free Energies=         -909.389387

                     E (Thermal)             CV                S
                      KCal/Mol        Cal/Mol-Kelvin    Cal/Mol-Kelvin
 Total                  143.979             58.218            130.205
 Electronic               0.000              0.000              1.377
 Translational            0.889              2.981             42.365
 Rotational               0.889              2.981             32.908
 Vibrational            142.202             52.257             53.554
 Vibration     1          0.593              1.986              6.743
 Vibration     2          0.594              1.981              5.238
 Vibration     3          0.595              1.978              4.911
 Vibration     4          0.602              1.955              3.634
 Vibration     5          0.604              1.949              3.459
 Vibration     6          0.612              1.921              2.913
 Vibration     7          0.616              1.910              2.756
 Vibration     8          0.627              1.875              2.393
 Vibration     9          0.651              1.798              1.893
 Vibration    10          0.653              1.794              1.872
 Vibration    11          0.664              1.760              1.718
 Vibration    12          0.671              1.737              1.627
 Vibration    13          0.685              1.697              1.489
 Vibration    14          0.698              1.657              1.370
 Vibration    15          0.715              1.610              1.246
 Vibration    16          0.724              1.582              1.182
 Vibration    17          0.764              1.476              0.973
 Vibration    18          0.775              1.447              0.924
 Vibration    19          0.814              1.349              0.780
 Vibration    20          0.818              1.339              0.767
 Vibration    21          0.887              1.179              0.582
 Vibration    22          0.928              1.092              0.501
 Vibration    23          0.939              1.070              0.482
 Vibration    24          0.975              0.998              0.423

 Optimization completed.
    -- Stationary point found.
 Normal termination of Gaussian 16 at Mon Oct 28 09:23:45 2024.
