 Gaussian 16, Revision C.01,
 Gaussian 16:  EM64L-G16RevC.01  3-Jul-2019

 ------------------------------------------------------
 # PBE1PBE/aug-cc-pVDZ opt freq EmpiricalDispersion=GD3
 ------------------------------------------------------

 ----
 blah
 ----
 Symbolic Z-matrix:
 Charge = -1 Multiplicity = 1

 SCF Done:  E(RPBE1PBE) =  -909.661332475     A.U. after   16 cycles
 SCF Done:  E(RPBE1PBE) =  -909.664418599     A.U. after   13 cycles
 SCF Done:  E(RPBE1PBE) =  -909.672244161     A.U. after   13 cycles
 SCF Done:  E(RPBE1PBE) =  -909.673558861     A.U. after   13 cycles
 SCF Done:  E(RPBE1PBE) =  -909.675732424     A.U. after   13 cycles
 SCF Done:  E(RPBE1PBE) =  -909.676271836     A.U. after   12 cycles
 SCF Done:  E(RPBE1PBE) =  -909.676583784     A.U. after   11 cycles
 SCF Done:  E(RPBE1PBE) =  -909.676688516     A.U. after   11 cycles
 SCF Done:  E(RPBE1PBE) =  -909.676744214     A.U. after   11 cycles
 SCF Done:  E(RPBE1PBE) =  -909.676797524     A.U. after   10 cycles
 SCF Done:  E(RPBE1PBE) =  -909.677193116     A.U. after   11 cycles
 SCF Done:  E(RPBE1PBE) =  -909.677280645     A.U. after   11 cycles
 SCF Done:  E(RPBE1PBE) =  -909.677134350     A.U. after   15 cycles
 SCF Done:  E(RPBE1PBE) =  -909.677724542     A.U. after   12 cycles
 SCF Done:  E(RPBE1PBE) =  -909.677751670     A.U. after   11 cycles
 SCF Done:  E(RPBE1PBE) =  -909.677778131     A.U. after   10 cycles
 SCF Done:  E(RPBE1PBE) =  -909.677781695     A.U. after   10 cycles
 SCF Done:  E(RPBE1PBE) =  -909.677782320     A.U. after    8 cycles
 SCF Done:  E(RPBE1PBE) =  -909.677782581     A.U. after    8 cycles
 Optimization completed.
    -- Stationary point found.
 Normal termination of Gaussian 16 at Fri Oct 18 11:23:06 2024.

 ----------------------------------------------------------------------
 #N Geom=AllCheck Guess=TCheck SCRF=Check GenChk RPBE1PBE/Aug-CC-pVDZ F
 req
 ----------------------------------------------------------------------

 Structure from the checkpoint file:  "/scr/Gau-2853.chk"
 ----
 blah
 ----
 Charge = -1 Multiplicity = 1

                         Standard orientation:
 ---------------------------------------------------------------------
 Center     Atomic      Atomic             Coordinates (Angstroms)
 Number     Number       Type             X           Y           Z
 ---------------------------------------------------------------------
      1          6           0        2.654456    0.601624    0.239077
      2          6           0        1.200946    0.891964    0.640737
      3          6           0        0.421799    0.304105   -0.547115
      4          8           0        1.013941    2.262728    0.818446
      5          1           0        0.935868    0.310886    1.542395
      6          8           0        1.137554   -0.869614   -0.882996
      7          1           0        0.437694    1.028015   -1.379536
      8          7           0       -0.960177   -0.039257   -0.272746
      9          6           0        2.535735   -0.643665   -0.651128
     10          1           0        3.287773    0.402519    1.118292
     11          8           0        3.166240    1.689705   -0.499487
     12          6           0        3.088448   -1.921499   -0.053468
     13          1           0        3.039098   -0.431907   -1.608571
     14          8           0        2.467918   -2.247099    1.174312
     15          1           0        4.161048   -1.795695    0.148917
     16          1           0        2.969480   -2.741298   -0.784333
     17          1           0        2.589410    2.431052   -0.236440
     18          1           0        0.068121    2.416108    0.495124
     19          1           0        1.517142   -2.178465    1.022037
     20          6           0       -1.416283   -1.329315   -0.248282
     21          6           0       -2.727746   -1.586881   -0.060800
     22          6           0       -3.673466   -0.473720    0.082980
     23          7           0       -3.164273    0.802723    0.057519
     24          6           0       -1.871830    1.036035   -0.097516
     25          1           0       -0.668169   -2.102931   -0.404340
     26          1           0       -3.102703   -2.608295   -0.041016
     27          8           0       -4.884934   -0.694686    0.221101
     28          8           0       -1.355214    2.190700   -0.105480
 ---------------------------------------------------------------------

 SCF Done:  E(RPBE1PBE) =  -909.677782581     A.U. after    1 cycles

 The electronic state is 1-A.
 Alpha  occ. eigenvalues --  -19.16004 -19.15044 -19.12729 -19.10987 -19.05483
 Alpha  occ. eigenvalues --  -19.02750 -14.32871 -14.22363 -10.22449 -10.21759
 Alpha  occ. eigenvalues --  -10.20418 -10.20358 -10.19258 -10.18628 -10.17514
 Alpha  occ. eigenvalues --  -10.16577 -10.10409  -1.01964  -0.98076  -0.97133
 Alpha  occ. eigenvalues --   -0.95092  -0.93070  -0.89552  -0.86078  -0.77086
 Alpha  occ. eigenvalues --   -0.71263  -0.69550  -0.66156  -0.60404  -0.55409
 Alpha  occ. eigenvalues --   -0.54402  -0.51463  -0.49310  -0.46808  -0.44989
 Alpha  occ. eigenvalues --   -0.43463  -0.42994  -0.42706  -0.40649  -0.38715
 Alpha  occ. eigenvalues --   -0.37911  -0.36199  -0.34592  -0.33899  -0.33765
 Alpha  occ. eigenvalues --   -0.32042  -0.31067  -0.30470  -0.29400  -0.28031
 Alpha  occ. eigenvalues --   -0.27386  -0.27086  -0.25031  -0.24806  -0.23056
 Alpha  occ. eigenvalues --   -0.21341  -0.20316  -0.19356  -0.18740  -0.15811
 Alpha  occ. eigenvalues --   -0.13535  -0.11846  -0.10796  -0.10476
 Alpha virt. eigenvalues --    0.07104   0.08535   0.08788   0.09693   0.10808
 Alpha virt. eigenvalues --    0.11082   0.11390   0.11800   0.12033   0.12530
 Alpha virt. eigenvalues --    0.13781   0.14961   0.15188   0.15423   0.15684

 Mulliken charges:
               1
     1  C    0.972599
     2  C    0.875543
     3  C    0.608869
     4  O   -0.767194
     5  H   -0.512080
     6  O   -0.769297
     7  H   -0.585526
     8  N    0.081789
     9  C    1.002434
    10  H   -0.374407
    11  O   -0.722514
    12  C    1.158414
    13  H   -0.528718
    14  O   -0.524532
    15  H   -0.275596
    16  H   -0.260852
    17  H    0.188517
    18  H    0.299248
    19  H    0.167211
    20  C    0.710816
    21  C    0.852796
    22  C    0.471448
    23  N   -0.508735
    24  C    0.483247
    25  H   -0.796851
    26  H   -0.587320
    27  O   -0.788142
    28  O   -0.871167
 Sum of Mulliken charges =  -1.00000

 Dipole moment (field-independent basis, Debye):
    X=             11.6238    Y=             -4.2570    Z=             -1.4608  Tot=             12.4647
 Quadrupole moment (field-independent basis, Debye-Ang):
   XX=           -178.9446   YY=           -119.6901   ZZ=           -105.4192
   XY=             -0.0264   XZ=              0.3103   YZ=              1.9468

  Exact polarizability:     204.911      10.646     155.815      -6.959      -0.431     107.369
 Approx polarizability:     268.138      22.795     224.497     -12.745      -3.100     163.541

                      1                      2                      3
                      A                      A                      A
 Frequencies --     26.6227                45.3154                63.8571
 Red. masses --      6.5755                 8.6430                 5.8145
 Frc consts  --      0.0027                 0.0105                 0.0140
 IR Inten    --      2.2452                 0.6849                 6.1755

                      4                      5                      6
                      A                      A                      A
 Frequencies --     79.1269               120.9347               171.5114
 Red. masses --      8.6955                 4.8594                 6.3579
 Frc consts  --      0.0321                 0.0419                 0.1102
 IR Inten    --      1.6351                 1.9572                 3.7501

                      7                      8                      9
                      A                      A                      A
 Frequencies --    174.5011               211.5617               248.2119
 Red. masses --      7.0879                 8.0745                 5.8639
 Frc consts  --      0.1272                 0.2129                 0.2129
 IR Inten    --      3.5993                 1.1949                12.9613

                     10                     11                     12
                      A                      A                      A
 Frequencies --    264.1289               290.5612               325.2913
 Red. masses --      4.7361                 6.6622                 3.4187
 Frc consts  --      0.1947                 0.3314                 0.2131
 IR Inten    --     21.9286                11.6721                 2.8133

                     13                     14                     15
                      A                      A                      A
 Frequencies --    338.1342               370.3633               413.1948
 Red. masses --      5.7976                 5.4761                 3.0480
 Frc consts  --      0.3906                 0.4426                 0.3066
 IR Inten    --     16.0825                 6.0159                16.8005

                     16                     17                     18
                      A                      A                      A
 Frequencies --    428.6074               456.5943               466.2624
 Red. masses --      2.7727                 7.3999                 1.3881
 Frc consts  --      0.3001                 0.9089                 0.1778
 IR Inten    --     41.1974                29.0184                61.8461

                     19                     20                     21
                      A                      A                      A
 Frequencies --    541.8764               556.5418               582.4792
 Red. masses --      6.3745                 5.9417                 9.2213
 Frc consts  --      1.1028                 1.0843                 1.8433
 IR Inten    --     10.4253                 5.3278                 7.4087

                     22                     23                     24
                      A                      A                      A
 Frequencies --    591.6711               631.2628               661.3933
 Red. masses --      1.1284                 5.7643                 5.7700
 Frc consts  --      0.2327                 1.3534                 1.4871
 IR Inten    --     79.0931                20.7235                 9.1209

                     25                     26                     27
                      A                      A                      A
 Frequencies --    721.8369               730.5909               734.6775
 Red. masses --      1.7150                 5.4899                 4.6619
 Frc consts  --      0.5265                 1.7265                 1.4826
 IR Inten    --     11.4883                24.4584                15.7941

                     28                     29                     30
                      A                      A                      A
 Frequencies --    784.9495               792.2918               834.1020
 Red. masses --      8.6122                10.3372                 3.4842
 Frc consts  --      3.1264                 3.8232                 1.4282
 IR Inten    --      7.5151                13.9779                37.4160

                     31                     32                     33
                      A                      A                      A
 Frequencies --    886.9199               906.0443               924.8361
 Red. masses --      3.2178                 3.3495                 2.3249
 Frc consts  --      1.4914                 1.6200                 1.1716
 IR Inten    --      2.1367                 6.6183                18.0088

                     34                     35                     36
                      A                      A                      A
 Frequencies --    934.8551               958.5308               962.8425
 Red. masses --      1.7675                 1.3331                 1.3313
 Frc consts  --      0.9101                 0.7217                 0.7272
 IR Inten    --     10.4002                30.5564                27.6106

                     37                     38                     39
                      A                      A                      A
 Frequencies --    999.6203              1037.1690              1064.1364
 Red. masses --      3.9733                 2.8860                 2.9373
 Frc consts  --      2.3392                 1.8291                 1.9597
 IR Inten    --     23.5444                17.3713                23.3310

                     40                     41                     42
                      A                      A                      A
 Frequencies --   1085.7489              1104.7185              1123.8486
 Red. masses --      3.4114                 1.7671                 1.9399
 Frc consts  --      2.3694                 1.2706                 1.4436
 IR Inten    --      9.6184                51.9553                63.4913

                     43                     44                     45
                      A                      A                      A
 Frequencies --   1136.7877              1165.0676              1175.6145
 Red. masses --      3.6339                 3.6235                 3.2407
 Frc consts  --      2.7668                 2.8979                 2.6389
 IR Inten    --    109.0208               121.7164                51.0425

                     46                     47                     48
                      A                      A                      A
 Frequencies --   1220.1519              1220.5143              1228.4975
 Red. masses --      1.4054                 1.6591                 1.4075
 Frc consts  --      1.2328                 1.4561                 1.2515
 IR Inten    --     17.5310                24.7654                26.1315

                     49                     50                     51
                      A                      A                      A
 Frequencies --   1276.4348              1294.1876              1297.4229
 Red. masses --      1.4282                 1.3553                 1.4565
 Frc consts  --      1.3710                 1.3375                 1.4446
 IR Inten    --     18.8280                63.2611                27.2308

                     52                     53                     54
                      A                      A                      A
 Frequencies --   1310.1778              1339.6767              1345.0717
 Red. masses --      1.7794                 1.6566                 2.1641
 Frc consts  --      1.7996                 1.7517                 2.3069
 IR Inten    --     51.4000               119.9764               120.3037

                     55                     56                     57
                      A                      A                      A
 Frequencies --   1353.5425              1358.2806              1372.2112
 Red. masses --      1.4180                 4.9518                 1.4991
 Frc consts  --      1.5306                 5.3826                 1.6631
 IR Inten    --      2.3728                41.4228                10.5049

                     58                     59                     60
                      A                      A                      A
 Frequencies --   1391.7578              1409.5784              1421.2952
 Red. masses --      1.3588                 1.5514                 1.4685
 Frc consts  --      1.5508                 1.8161                 1.7478
 IR Inten    --    105.1240                43.0741                63.8564

                     61                     62                     63
                      A                      A                      A
 Frequencies --   1431.8470              1477.0732              1485.8426
 Red. masses --      1.6112                 1.0892                 4.1349
 Frc consts  --      1.9463                 1.4001                 5.3786
 IR Inten    --    132.3178                 2.6393                24.7422

                     64                     65                     66
                      A                      A                      A
 Frequencies --   1513.7895              1617.9514              1703.0019
 Red. masses --      1.5513                 4.2983                10.2011
 Frc consts  --      2.0945                 6.6295                17.4313
 IR Inten    --    693.6937               429.0236               197.5185

                     67                     68                     69
                      A                      A                      A
 Frequencies --   1717.5388              2930.5912              3013.0984
 Red. masses --      7.1576                 1.0758                 1.0737
 Frc consts  --     12.4402                 5.4439                 5.7432
 IR Inten    --    841.3787              1380.7217                61.1177

                     70                     71                     72
                      A                      A                      A
 Frequencies --   3013.9420              3037.1450              3047.1947
 Red. masses --      1.0779                 1.0853                 1.0868
 Frc consts  --      5.7690                 5.8984                 5.9456
 IR Inten    --     59.9017                29.7659                46.2911

                     73                     74                     75
                      A                      A                      A
 Frequencies --   3051.8954              3108.8725              3225.3501
 Red. masses --      1.0858                 1.0960                 1.0869
 Frc consts  --      5.9583                 6.2411                 6.6617
 IR Inten    --     74.6369                36.7464                 1.9572

                     76                     77                     78
                      A                      A                      A
 Frequencies --   3247.2185              3630.1920              3818.2943
 Red. masses --      1.0991                 1.0648                 1.0655
 Frc consts  --      6.8280                 8.2672                 9.1525
 IR Inten    --     15.7198               123.7880                63.8614

 - Thermochemistry -
 -------------------
 Temperature   298.150 Kelvin.  Pressure   1.00000 Atm.
 Atom     1 has atomic number  6 and mass  12.00000

 Molecular mass:   243.06171 amu.
 Principal axes and moments of inertia in atomic units:
                           1         2         3
     Eigenvalues --  2008.055455766.843017225.44580
           X            1.00000  -0.00237  -0.00049
           Y            0.00237   0.99999   0.00349
           Z            0.00049  -0.00350   0.99999
 This molecule is an asymmetric top.
 Rotational symmetry number  1.
 Warning -- assumption of classical behavior for rotation
           may cause significant error
 Rotational temperatures (Kelvin)      0.04313     0.01502     0.01199
 Rotational constants (GHZ):           0.89875     0.31295     0.24978
 Zero-point vibrational energy     562453.2 (Joules/Mol)
                                  134.42954 (Kcal/Mol)
 Warning -- explicit consideration of  22 degrees of freedom as
           vibrations may cause significant error
 Vibrational temperatures:     38.30    65.20    91.88   113.85   174.00
          (Kelvin)            246.77   251.07   304.39   357.12   380.02
                              418.05   468.02   486.50   532.87   594.50
                              616.67   656.94   670.85   779.64   800.74
                              838.06   851.28   908.25   951.60  1038.56
                             1051.16  1057.04  1129.37  1139.93  1200.09
                             1276.08  1303.60  1330.63  1345.05  1379.11
                             1385.32  1438.23  1492.25  1531.05  1562.15
                             1589.44  1616.97  1635.58  1676.27  1691.45
                             1755.53  1756.05  1767.53  1836.50  1862.05
                             1866.70  1885.05  1927.50  1935.26  1947.45
                             1954.26  1974.31  2002.43  2028.07  2044.93
                             2060.11  2125.18  2137.80  2178.01  2327.87
                             2450.24  2471.16  4216.47  4335.18  4336.39
                             4369.77  4384.23  4391.00  4472.97  4640.56
                             4672.02  5223.04  5493.67

 Zero-point correction=                           0.214227 (Hartree/Particle)
 Thermal correction to Energy=                    0.228631
 Thermal correction to Enthalpy=                  0.229575
 Thermal correction to Gibbs Free Energy=         0.171539
 Sum of electronic and zero-point Energies=           -909.463555
 Sum of electronic and thermal Energies=              -909.449152
 Sum of electronic and thermal Enthalpies=            -909.448208
 Sum of electronic and thermal Free Energies=         -909.506244

                     E (Thermal)             CV                S
                      KCal/Mol        Cal/Mol-Kelvin    Cal/Mol-Kelvin
 Total                  143.468             55.256            122.147
 Electronic               0.000              0.000              0.000
 Translational            0.889              2.981             42.365
 Rotational               0.889              2.981             32.792
 Vibrational            141.691             49.294             46.989
 Vibration     1          0.593              1.984              6.066
 Vibration     2          0.595              1.979              5.012
 Vibration     3          0.597              1.972              4.334
 Vibration     4          0.600              1.963              3.912
 Vibration     5          0.609              1.932              3.085
 Vibration     6          0.626              1.878              2.419
 Vibration     7          0.627              1.874              2.386
 Vibration     8          0.643              1.823              2.030
 Vibration     9          0.662              1.766              1.743
 Vibration    10          0.671              1.739              1.634
 Vibration    11          0.687              1.691              1.471
 Vibration    12          0.709              1.625              1.283
 Vibration    13          0.718              1.599              1.221
 Vibration    14          0.742              1.533              1.078
 Vibration    15          0.777              1.442              0.915
 Vibration    16          0.790              1.408              0.863
 Vibration    17          0.815              1.346              0.776
 Vibration    18          0.824              1.325              0.748
 Vibration    19          0.897              1.157              0.561
 Vibration    20          0.912              1.125              0.531
 Vibration    21          0.939              1.069              0.481
 Vibration    22          0.949              1.050              0.464

                           ! Non-Optimized Parameters !
 Normal termination of Gaussian 16 at Fri Oct 18 11:37:51 2024.
