 Gaussian 16, Revision C.01,
 Gaussian 16:  EM64L-G16RevC.01  3-Jul-2019

 ------------------------------------------------------
 # PBE1PBE/aug-cc-pVDZ opt freq EmpiricalDispersion=GD3
 ------------------------------------------------------

 ----
 blah
 ----
 Symbolic Z-matrix:
 Charge =  0 Multiplicity = 2

 SCF Done:  E(UPBE1PBE) =  -909.514367687     A.U. after   33 cycles
 SCF Done:  E(UPBE1PBE) =  -909.516529093     A.U. after   26 cycles
 SCF Done:  E(UPBE1PBE) =  -909.517406477     A.U. after   24 cycles
 SCF Done:  E(UPBE1PBE) =  -909.520394140     A.U. after   23 cycles
 SCF Done:  E(UPBE1PBE) =  -909.521238367     A.U. after   23 cycles
 SCF Done:  E(UPBE1PBE) =  -909.521479231     A.U. after   22 cycles
 SCF Done:  E(UPBE1PBE) =  -909.521738868     A.U. after   22 cycles
 SCF Done:  E(UPBE1PBE) =  -909.521836150     A.U. after   22 cycles
 SCF Done:  E(UPBE1PBE) =  -909.521937965     A.U. after   21 cycles
 SCF Done:  E(UPBE1PBE) =  -909.521991028     A.U. after   21 cycles
 SCF Done:  E(UPBE1PBE) =  -909.522002727     A.U. after   20 cycles
 SCF Done:  E(UPBE1PBE) =  -909.522012004     A.U. after   20 cycles
 SCF Done:  E(UPBE1PBE) =  -909.522020870     A.U. after   21 cycles
 SCF Done:  E(UPBE1PBE) =  -909.522022988     A.U. after   20 cycles
 SCF Done:  E(UPBE1PBE) =  -909.522023776     A.U. after   18 cycles
 SCF Done:  E(UPBE1PBE) =  -909.522023936     A.U. after   19 cycles
 SCF Done:  E(UPBE1PBE) =  -909.522024149     A.U. after   20 cycles
 SCF Done:  E(UPBE1PBE) =  -909.522024242     A.U. after   19 cycles
 SCF Done:  E(UPBE1PBE) =  -909.522024260     A.U. after   18 cycles
 Optimization completed.
    -- Stationary point found.
 Normal termination of Gaussian 16 at Mon Oct 21 16:00:31 2024.

 ----------------------------------------------------------------------
 #N Geom=AllCheck Guess=TCheck SCRF=Check GenChk UPBE1PBE/Aug-CC-pVDZ F
 req
 ----------------------------------------------------------------------

 Structure from the checkpoint file:  "/scr/Gau-63757.chk"
 ----
 blah
 ----
 Charge =  0 Multiplicity = 2

                         Standard orientation:
 ---------------------------------------------------------------------
 Center     Atomic      Atomic             Coordinates (Angstroms)
 Number     Number       Type             X           Y           Z
 ---------------------------------------------------------------------
      1          6           0        2.667453    0.561323    0.182218
      2          6           0        1.237255    0.855017    0.650791
      3          6           0        0.444753    0.347921   -0.582966
      4          8           0        1.104500    2.207409    0.933005
      5          1           0        0.985787    0.211683    1.511344
      6          8           0        1.121420   -0.789737   -1.021965
      7          1           0        0.406235    1.146841   -1.342190
      8          7           0       -0.940806   -0.013538   -0.301661
      9          6           0        2.523376   -0.702474   -0.659523
     10          1           0        3.335843    0.406571    1.043649
     11          8           0        3.121099    1.604539   -0.644667
     12          6           0        2.926775   -1.986339    0.033638
     13          1           0        3.106089   -0.583406   -1.583921
     14          8           0        2.302243   -2.156196    1.291997
     15          1           0        4.008155   -1.952997    0.221931
     16          1           0        2.728382   -2.840155   -0.634432
     17          1           0        2.758700    2.419325   -0.264381
     18          1           0        0.183595    2.457675    0.697873
     19          1           0        1.383283   -2.395489    1.144147
     20          6           0       -1.341251   -1.283028   -0.286922
     21          6           0       -2.679921   -1.562061   -0.090805
     22          6           0       -3.614496   -0.451512    0.053907
     23          7           0       -3.169222    0.827431    0.046673
     24          6           0       -1.882398    1.104910   -0.063894
     25          1           0       -0.583529   -2.038407   -0.483167
     26          1           0       -3.053392   -2.582682   -0.052898
     27          8           0       -4.820471   -0.736587    0.205991
     28          8           0       -1.351070    2.214478   -0.000824
 ---------------------------------------------------------------------

 SCF Done:  E(UPBE1PBE) =  -909.522024260     A.U. after    1 cycles

 The electronic state is 2-A.
 Alpha  occ. eigenvalues --  -19.29185 -19.26336 -19.24757 -19.24573 -19.24553
 Alpha  occ. eigenvalues --  -19.22402 -14.54119 -14.40587 -10.39360 -10.37412
 Alpha  occ. eigenvalues --  -10.35991 -10.35623 -10.32509 -10.32192 -10.31933
 Alpha  occ. eigenvalues --  -10.31383 -10.31354  -1.15928  -1.12395  -1.10263
 Alpha  occ. eigenvalues --   -1.09893  -1.09329  -1.06884  -1.05149  -0.95914
 Alpha  occ. eigenvalues --   -0.87343  -0.83828  -0.81325  -0.74745  -0.72654
 Alpha  occ. eigenvalues --   -0.68785  -0.66517  -0.64757  -0.61957  -0.60612
 Alpha  occ. eigenvalues --   -0.59180  -0.56079  -0.55652  -0.54600  -0.53367
 Alpha  occ. eigenvalues --   -0.52359  -0.51609  -0.51079  -0.49034  -0.48837
 Alpha  occ. eigenvalues --   -0.47660  -0.46303  -0.45678  -0.44773  -0.43639
 Alpha  occ. eigenvalues --   -0.43242  -0.42114  -0.40015  -0.38812  -0.37153
 Alpha  occ. eigenvalues --   -0.34783  -0.33609  -0.32770  -0.32450  -0.31709
 Alpha  occ. eigenvalues --   -0.31377  -0.30438  -0.30149  -0.29616
 Alpha virt. eigenvalues --   -0.07815  -0.03063  -0.02559  -0.00540  -0.00136
 Alpha virt. eigenvalues --    0.00122   0.01199   0.01695   0.02326   0.02798
 Alpha virt. eigenvalues --    0.03001   0.04567   0.05195   0.05456   0.05744

  Beta  occ. eigenvalues --  -19.29164 -19.26337 -19.24551 -19.24538 -19.23670
  Beta  occ. eigenvalues --  -19.22444 -14.53379 -14.40488 -10.39436 -10.37428
  Beta  occ. eigenvalues --  -10.36235 -10.35811 -10.32434 -10.32193 -10.31374
  Beta  occ. eigenvalues --  -10.31353 -10.31213  -1.15693  -1.12116  -1.09914
  Beta  occ. eigenvalues --   -1.09332  -1.08391  -1.06828  -1.04390  -0.95329
  Beta  occ. eigenvalues --   -0.86411  -0.83737  -0.80704  -0.74367  -0.72387
  Beta  occ. eigenvalues --   -0.68621  -0.66252  -0.64621  -0.61666  -0.60323
  Beta  occ. eigenvalues --   -0.58787  -0.55889  -0.55569  -0.54529  -0.53103
  Beta  occ. eigenvalues --   -0.51841  -0.50903  -0.50459  -0.48912  -0.48397
  Beta  occ. eigenvalues --   -0.47238  -0.45699  -0.44721  -0.44465  -0.43061
  Beta  occ. eigenvalues --   -0.41825  -0.41209  -0.39857  -0.38488  -0.37014
  Beta  occ. eigenvalues --   -0.34302  -0.32935  -0.32356  -0.31828  -0.31121
  Beta  occ. eigenvalues --   -0.30834  -0.29501  -0.27922
  Beta virt. eigenvalues --   -0.20446  -0.05805  -0.03007  -0.01595  -0.00510
  Beta virt. eigenvalues --   -0.00104   0.00203   0.01259   0.01750   0.02364
  Beta virt. eigenvalues --    0.02852   0.03018   0.04600   0.05263   0.05517

 Mulliken charges and spin densities:
               1          2
     1  C    1.066876   0.006966
     2  C    0.875515   0.039211
     3  C    0.665482  -0.059984
     4  O   -0.679854   0.006528
     5  H   -0.479402   0.000179
     6  O   -0.763058   0.006770
     7  H   -0.521036   0.025800
     8  N    0.108427   0.351437
     9  C    0.984504  -0.002308
    10  H   -0.356669   0.003490
    11  O   -0.700114   0.004587
    12  C    1.016707   0.000820
    13  H   -0.456972   0.000691
    14  O   -0.455442  -0.000045
    15  H   -0.272852  -0.000062
    16  H   -0.251163  -0.000124
    17  H    0.175220  -0.000268
    18  H    0.227820   0.000587
    19  H    0.126786  -0.000074
    20  C    0.755345  -0.216882
    21  C    0.848410   0.634306
    22  C    0.513222  -0.197563
    23  N   -0.440573   0.059923
    24  C    0.540052  -0.048274
    25  H   -0.701092   0.011787
    26  H   -0.518524  -0.023081
    27  O   -0.615879   0.408659
    28  O   -0.691734  -0.013078
 Sum of Mulliken charges =  -0.00000   1.00000

 Dipole moment (field-independent basis, Debye):
    X=              4.7000    Y=             -5.6656    Z=             -1.3275  Tot=              7.4801
 Quadrupole moment (field-independent basis, Debye-Ang):
   XX=           -126.4820   YY=            -98.7242   ZZ=           -100.5610
   XY=              5.3425   XZ=              0.4931   YZ=              1.6776

  Exact polarizability:     276.282      14.367     153.745     -11.504       2.344      99.150
 Approx polarizability:     354.788      40.869     236.958     -17.552       2.683     152.923

                      1                      2                      3
                      A                      A                      A
 Frequencies --     23.5495                42.2244                65.0860
 Red. masses --      6.8052                 9.7839                 5.6425
 Frc consts  --      0.0022                 0.0103                 0.0141
 IR Inten    --      3.5038                 3.1485                 6.0654

                      4                      5                      6
                      A                      A                      A
 Frequencies --     89.7663               113.8767               154.3343
 Red. masses --      8.1089                 4.0688                 8.4124
 Frc consts  --      0.0385                 0.0311                 0.1181
 IR Inten    --      6.9731                 7.0757                 9.0173

                      7                      8                      9
                      A                      A                      A
 Frequencies --    171.1832               188.6926               219.3902
 Red. masses --      5.4239                 6.3340                 1.4322
 Frc consts  --      0.0936                 0.1329                 0.0406
 IR Inten    --     15.4236                 1.7875               102.5060

                     10                     11                     12
                      A                      A                      A
 Frequencies --    230.8688               266.8980               286.4251
 Red. masses --      3.8312                 4.8631                 5.0282
 Frc consts  --      0.1203                 0.2041                 0.2430
 IR Inten    --     61.4139                21.1290                 4.5502

                     13                     14                     15
                      A                      A                      A
 Frequencies --    305.1487               334.0274               352.8553
 Red. masses --      5.2362                 2.7848                 6.1203
 Frc consts  --      0.2873                 0.1831                 0.4490
 IR Inten    --     19.6126                37.3809                26.4711

                     16                     17                     18
                      A                      A                      A
 Frequencies --    381.9609               404.8299               455.3063
 Red. masses --      3.9644                 9.9814                 3.6032
 Frc consts  --      0.3408                 0.9638                 0.4401
 IR Inten    --     26.0147                53.1245                 8.6858

                     19                     20                     21
                      A                      A                      A
 Frequencies --    503.5122               518.9621               546.0230
 Red. masses --      1.3421                 4.5172                 7.6880
 Frc consts  --      0.2005                 0.7168                 1.3505
 IR Inten    --    128.1051                59.9995                93.6787

                     22                     23                     24
                      A                      A                      A
 Frequencies --    557.2301               604.4997               624.5486
 Red. masses --      6.1383                 5.1782                 6.6382
 Frc consts  --      1.1230                 1.1149                 1.5256
 IR Inten    --     34.6381                53.7412                13.3211

                     25                     26                     27
                      A                      A                      A
 Frequencies --    655.3266               689.9410               704.9933
 Red. masses --      2.3751                 2.0007                 2.5340
 Frc consts  --      0.6010                 0.5611                 0.7420
 IR Inten    --      2.4214                49.4270                30.5921

                     28                     29                     30
                      A                      A                      A
 Frequencies --    728.5926               759.4409               785.1136
 Red. masses --      3.0265                 4.9775                 8.5080
 Frc consts  --      0.9466                 1.6914                 3.0899
 IR Inten    --     11.6063                30.3077                13.3245

                     31                     32                     33
                      A                      A                      A
 Frequencies --    811.2226               874.2544               895.7902
 Red. masses --      2.0376                 3.7389                 3.7736
 Frc consts  --      0.7901                 1.6837                 1.7841
 IR Inten    --     36.6785                 9.0908                10.1577

                     34                     35                     36
                      A                      A                      A
 Frequencies --    914.4483               917.3119               938.7700
 Red. masses --      2.3107                 4.7300                 2.3759
 Frc consts  --      1.1385                 2.3450                 1.2337
 IR Inten    --      3.6193                72.5916                 7.7222

                     37                     38                     39
                      A                      A                      A
 Frequencies --    973.3029              1014.9691              1040.4504
 Red. masses --      1.5296                 3.0060                 3.0794
 Frc consts  --      0.8537                 1.8245                 1.9641
 IR Inten    --      8.0793                19.0336                 7.5330

                     40                     41                     42
                      A                      A                      A
 Frequencies --   1050.3901              1080.8205              1087.2410
 Red. masses --      3.7717                 2.3671                 1.7947
 Frc consts  --      2.4518                 1.6292                 1.2500
 IR Inten    --    374.0305                87.3158                35.5239

                     43                     44                     45
                      A                      A                      A
 Frequencies --   1127.6867              1136.7140              1167.2465
 Red. masses --      2.4248                 3.2854                 3.5282
 Frc consts  --      1.8168                 2.5012                 2.8322
 IR Inten    --     24.5463                71.0635               141.7565

                     46                     47                     48
                      A                      A                      A
 Frequencies --   1178.8150              1192.7651              1213.8051
 Red. masses --      2.6793                 2.5366                 1.3100
 Frc consts  --      2.1936                 2.1263                 1.1371
 IR Inten    --     74.7318                57.4620                49.4407

                     49                     50                     51
                      A                      A                      A
 Frequencies --   1226.5314              1255.6761              1271.1624
 Red. masses --      1.3937                 1.3701                 1.2929
 Frc consts  --      1.2353                 1.2728                 1.2309
 IR Inten    --     39.6045                37.3613                 7.7773

                     52                     53                     54
                      A                      A                      A
 Frequencies --   1291.9935              1310.9253              1341.1684
 Red. masses --      1.5265                 1.4614                 1.3689
 Frc consts  --      1.5013                 1.4797                 1.4507
 IR Inten    --      9.6674                 3.8173                10.6668

                     55                     56                     57
                      A                      A                      A
 Frequencies --   1356.3079              1359.0254              1368.7526
 Red. masses --      1.4013                 1.4401                 1.4773
 Frc consts  --      1.5188                 1.5671                 1.6307
 IR Inten    --     33.9988                17.9231                55.3933

                     58                     59                     60
                      A                      A                      A
 Frequencies --   1381.0678              1390.1432              1399.0343
 Red. masses --      1.4268                 3.6287                 1.3717
 Frc consts  --      1.6035                 4.1316                 1.5818
 IR Inten    --    101.2529                18.7989                36.4156

                     61                     62                     63
                      A                      A                      A
 Frequencies --   1420.9870              1436.0365              1462.3145
 Red. masses --      2.0702                 2.2090                 2.0448
 Frc consts  --      2.4629                 2.6840                 2.5763
 IR Inten    --    155.7801               210.4617                80.3194

                     64                     65                     66
                      A                      A                      A
 Frequencies --   1469.9186              1508.8892              1543.9568
 Red. masses --      1.0876                 5.5397                 4.4228
 Frc consts  --      1.3845                 7.4311                 6.2118
 IR Inten    --      9.3125                95.1394                18.7592

                     67                     68                     69
                      A                      A                      A
 Frequencies --   1754.9913              3036.9067              3045.3122
 Red. masses --     10.6273                 1.0829                 1.0661
 Frc consts  --     19.2852                 5.8846                 5.8252
 IR Inten    --    277.9806                11.4998                33.7416

                     70                     71                     72
                      A                      A                      A
 Frequencies --   3054.7425              3063.1230              3094.5127
 Red. masses --      1.0839                 1.0868                 1.0869
 Frc consts  --      5.9594                 6.0078                 6.1325
 IR Inten    --      6.3179                30.3400                25.1651

                     73                     74                     75
                      A                      A                      A
 Frequencies --   3125.6386              3243.3403              3263.4899
 Red. masses --      1.1002                 1.0901                 1.0971
 Frc consts  --      6.3326                 6.7563                 6.8845
 IR Inten    --     13.6822                 1.4989                 0.7742

                     76                     77                     78
                      A                      A                      A
 Frequencies --   3452.4675              3751.7457              3883.7582
 Red. masses --      1.0687                 1.0650                 1.0664
 Frc consts  --      7.5054                 8.8318                 9.4768
 IR Inten    --    338.9438                71.4966                22.0019

 - Thermochemistry -
 -------------------
 Temperature   298.150 Kelvin.  Pressure   1.00000 Atm.
 Atom     1 has atomic number  6 and mass  12.00000

 Molecular mass:   243.06171 amu.
 Principal axes and moments of inertia in atomic units:
                           1         2         3
     Eigenvalues --  2029.075995652.891597023.19560
           X            1.00000  -0.00275   0.00007
           Y            0.00275   0.99999   0.00243
           Z           -0.00008  -0.00243   1.00000
 This molecule is an asymmetric top.
 Rotational symmetry number  1.
 Warning -- assumption of classical behavior for rotation
           may cause significant error
 Rotational temperatures (Kelvin)      0.04269     0.01532     0.01233
 Rotational constants (GHZ):           0.88944     0.31926     0.25697
 Zero-point vibrational energy     555931.7 (Joules/Mol)
                                  132.87088 (Kcal/Mol)
 Warning -- explicit consideration of  23 degrees of freedom as
           vibrations may cause significant error
 Vibrational temperatures:     33.88    60.75    93.64   129.15   163.84
          (Kelvin)            222.05   246.29   271.49   315.65   332.17
                              384.01   412.10   439.04   480.59   507.68
                              549.56   582.46   655.08   724.44   746.67
                              785.61   801.73   869.74   898.59   942.87
                              992.67  1014.33  1048.28  1092.67  1129.60
                             1167.17  1257.86  1288.84  1315.69  1319.81
                             1350.68  1400.37  1460.31  1496.98  1511.28
                             1555.06  1564.30  1622.49  1635.48  1679.41
                             1696.05  1716.12  1746.39  1764.71  1806.64
                             1828.92  1858.89  1886.13  1929.64  1951.42
                             1955.33  1969.33  1987.05  2000.11  2012.90
                             2044.48  2066.14  2103.94  2114.88  2170.95
                             2221.41  2525.04  4369.43  4381.52  4395.09
                             4407.15  4452.31  4497.10  4666.44  4695.43
                             4967.33  5397.93  5587.86

 Zero-point correction=                           0.211743 (Hartree/Particle)
 Thermal correction to Energy=                    0.226943
 Thermal correction to Enthalpy=                  0.227888
 Thermal correction to Gibbs Free Energy=         0.167628
 Sum of electronic and zero-point Energies=           -909.310281
 Sum of electronic and thermal Energies=              -909.295081
 Sum of electronic and thermal Enthalpies=            -909.294137
 Sum of electronic and thermal Free Energies=         -909.354396

                     E (Thermal)             CV                S
                      KCal/Mol        Cal/Mol-Kelvin    Cal/Mol-Kelvin
 Total                  142.409             57.723            126.827
 Electronic               0.000              0.000              1.377
 Translational            0.889              2.981             42.365
 Rotational               0.889              2.981             32.754
 Vibrational            140.632             51.761             50.330
 Vibration     1          0.593              1.985              6.310
 Vibration     2          0.595              1.980              5.152
 Vibration     3          0.597              1.971              4.297
 Vibration     4          0.602              1.956              3.665
 Vibration     5          0.607              1.938              3.202
 Vibration     6          0.620              1.898              2.618
 Vibration     7          0.626              1.878              2.422
 Vibration     8          0.633              1.855              2.241
 Vibration     9          0.647              1.812              1.964
 Vibration    10          0.653              1.794              1.872
 Vibration    11          0.672              1.734              1.616
 Vibration    12          0.684              1.699              1.495
 Vibration    13          0.696              1.664              1.389
 Vibration    14          0.716              1.608              1.241
 Vibration    15          0.729              1.569              1.153
 Vibration    16          0.751              1.509              1.031
 Vibration    17          0.770              1.460              0.945
 Vibration    18          0.814              1.349              0.780
 Vibration    19          0.859              1.242              0.649
 Vibration    20          0.874              1.208              0.612
 Vibration    21          0.901              1.148              0.552
 Vibration    22          0.913              1.124              0.529
 Vibration    23          0.963              1.022              0.442

 Optimization completed.
    -- Stationary point found.
 Normal termination of Gaussian 16 at Mon Oct 21 16:26:51 2024.
