 Gaussian 16, Revision C.01,
 Gaussian 16:  EM64L-G16RevC.01  3-Jul-2019

 ------------------------------------------------------
 # PBE1PBE/aug-cc-pVDZ opt freq EmpiricalDispersion=GD3
 ------------------------------------------------------

 ----
 blah
 ----
 Symbolic Z-matrix:
 Charge =  0 Multiplicity = 1

 SCF Done:  E(RPBE1PBE) =  -910.210612280     A.U. after   14 cycles
 SCF Done:  E(RPBE1PBE) =  -910.215333934     A.U. after   14 cycles
 SCF Done:  E(RPBE1PBE) =  -910.219293978     A.U. after   12 cycles
 SCF Done:  E(RPBE1PBE) =  -910.220693569     A.U. after   12 cycles
 SCF Done:  E(RPBE1PBE) =  -910.221312988     A.U. after   12 cycles
 SCF Done:  E(RPBE1PBE) =  -910.221421496     A.U. after   11 cycles
 SCF Done:  E(RPBE1PBE) =  -910.221460672     A.U. after   11 cycles
 SCF Done:  E(RPBE1PBE) =  -910.221476650     A.U. after   10 cycles
 SCF Done:  E(RPBE1PBE) =  -910.221487099     A.U. after   10 cycles
 SCF Done:  E(RPBE1PBE) =  -910.221493156     A.U. after   10 cycles
 SCF Done:  E(RPBE1PBE) =  -910.221537357     A.U. after   10 cycles
 SCF Done:  E(RPBE1PBE) =  -910.221545275     A.U. after   11 cycles
 SCF Done:  E(RPBE1PBE) =  -910.221546301     A.U. after    9 cycles
 SCF Done:  E(RPBE1PBE) =  -910.221546255     A.U. after   10 cycles
 SCF Done:  E(RPBE1PBE) =  -910.221546634     A.U. after    8 cycles
 SCF Done:  E(RPBE1PBE) =  -910.221548050     A.U. after   11 cycles
 SCF Done:  E(RPBE1PBE) =  -910.221548179     A.U. after    9 cycles
 SCF Done:  E(RPBE1PBE) =  -910.221548235     A.U. after    8 cycles
 SCF Done:  E(RPBE1PBE) =  -910.221548264     A.U. after    7 cycles
 Optimization completed.
    -- Stationary point found.
 Normal termination of Gaussian 16 at Thu Oct 17 12:17:37 2024.

 ----------------------------------------------------------------------
 #N Geom=AllCheck Guess=TCheck SCRF=Check GenChk RPBE1PBE/Aug-CC-pVDZ F
 req
 ----------------------------------------------------------------------

 Structure from the checkpoint file:  "/scr/Gau-20819.chk"
 ----
 blah
 ----
 Charge =  0 Multiplicity = 1

                         Standard orientation:
 ---------------------------------------------------------------------
 Center     Atomic      Atomic             Coordinates (Angstroms)
 Number     Number       Type             X           Y           Z
 ---------------------------------------------------------------------
      1          6           0        2.767232    0.258623    0.286484
      2          6           0        1.398272    0.907176    0.497036
      3          6           0        0.613535    0.412283   -0.738014
      4          8           0        1.557177    2.296087    0.561551
      5          1           0        0.933148    0.497152    1.406097
      6          8           0        1.220522   -0.765795   -1.176409
      7          1           0        0.630837    1.177369   -1.528816
      8          7           0       -0.812286    0.116602   -0.443727
      9          6           0        2.429457   -1.038326   -0.432373
     10          1           0        3.274377    0.074994    1.246920
     11          8           0        3.561589    1.049533   -0.567186
     12          6           0        2.229960   -2.245705    0.464487
     13          1           0        3.215259   -1.260532   -1.167523
     14          8           0        1.279854   -2.032446    1.492968
     15          1           0        3.183995   -2.474873    0.959227
     16          1           0        1.959491   -3.114276   -0.157310
     17          1           0        3.331730    1.969662   -0.374779
     18          1           0        0.661798    2.669512    0.498028
     19          1           0        0.396917   -2.123482    1.122816
     20          6           0       -1.369259   -1.110527   -0.703300
     21          6           0       -2.669861   -1.394328   -0.467404
     22          6           0       -3.550844   -0.369185    0.056233
     23          7           0       -2.899913    0.861046    0.245925
     24          6           0       -1.584777    1.164026    0.016469
     25          1           0       -0.675572   -1.834618   -1.123259
     26          1           0       -3.083095   -2.375364   -0.680855
     27          1           0       -3.467231    1.623905    0.596745
     28          8           0       -4.733620   -0.482736    0.317890
     29          8           0       -1.130341    2.288204    0.209886
 ---------------------------------------------------------------------

 SCF Done:  E(RPBE1PBE) =  -910.221548264     A.U. after    1 cycles

 The electronic state is 1-A.
 Alpha  occ. eigenvalues --  -19.27298 -19.25356 -19.24064 -19.23617 -19.23431
 Alpha  occ. eigenvalues --  -19.21572 -14.49344 -14.47263 -10.40979 -10.36704
 Alpha  occ. eigenvalues --  -10.35620 -10.32753 -10.30874 -10.30712 -10.30371
 Alpha  occ. eigenvalues --  -10.30253 -10.26859  -1.14723  -1.12764  -1.09627
 Alpha  occ. eigenvalues --   -1.08846  -1.08242  -1.05942  -1.03408  -0.98232
 Alpha  occ. eigenvalues --   -0.85175  -0.82871  -0.80198  -0.73837  -0.73406
 Alpha  occ. eigenvalues --   -0.69246  -0.65649  -0.64195  -0.60414  -0.59945
 Alpha  occ. eigenvalues --   -0.58043  -0.56600  -0.54894  -0.54198  -0.53000
 Alpha  occ. eigenvalues --   -0.52458  -0.50914  -0.50026  -0.49415  -0.48286
 Alpha  occ. eigenvalues --   -0.46268  -0.45463  -0.45028  -0.44249  -0.43501
 Alpha  occ. eigenvalues --   -0.42606  -0.41201  -0.40381  -0.39082  -0.37797
 Alpha  occ. eigenvalues --   -0.35111  -0.34399  -0.33721  -0.32407  -0.31282
 Alpha  occ. eigenvalues --   -0.30643  -0.30272  -0.29675  -0.27419
 Alpha virt. eigenvalues --   -0.06211  -0.01640  -0.01567  -0.00164   0.00351
 Alpha virt. eigenvalues --    0.00772   0.01542   0.02010   0.02540   0.03174
 Alpha virt. eigenvalues --    0.03209   0.03893   0.05240   0.05432   0.05702

 Mulliken charges:
               1
     1  C    1.214463
     2  C    0.889954
     3  C    0.804742
     4  O   -0.646732
     5  H   -0.509084
     6  O   -0.766856
     7  H   -0.511481
     8  N    0.032248
     9  C    0.902416
    10  H   -0.339899
    11  O   -0.721112
    12  C    0.898197
    13  H   -0.427312
    14  O   -0.477645
    15  H   -0.302187
    16  H   -0.235353
    17  H    0.170566
    18  H    0.151030
    19  H    0.165764
    20  C    0.614228
    21  C    1.204732
    22  C    0.356211
    23  N   -0.227462
    24  C    0.554418
    25  H   -0.735381
    26  H   -0.601204
    27  H   -0.098710
    28  O   -0.649689
    29  O   -0.708864
 Sum of Mulliken charges =  -0.00000

 Dipole moment (field-independent basis, Debye):
    X=              1.6535    Y=             -2.1103    Z=             -1.0310  Tot=              2.8723
 Quadrupole moment (field-independent basis, Debye-Ang):
   XX=           -120.7167   YY=            -95.9292   ZZ=           -102.3462
   XY=             -7.8282   XZ=              3.2911   YZ=              2.9568

  Exact polarizability:     186.535       8.071     144.155      -6.959       4.784     101.922
 Approx polarizability:     247.124      17.239     208.558     -14.947       9.063     156.925

                      1                      2                      3
                      A                      A                      A
 Frequencies --     21.4450                44.0896                81.5227
 Red. masses --      6.8330                 7.7561                 5.6516
 Frc consts  --      0.0019                 0.0089                 0.0221
 IR Inten    --      0.0735                 0.3384                 6.5801

                      4                      5                      6
                      A                      A                      A
 Frequencies --     99.3254               115.2013               163.1516
 Red. masses --      6.7331                 4.1806                 8.7755
 Frc consts  --      0.0391                 0.0327                 0.1376
 IR Inten    --      1.9950                 1.1113                 8.8550

                      7                      8                      9
                      A                      A                      A
 Frequencies --    174.7438               186.9024               218.9316
 Red. masses --      8.7379                 6.7990                 5.3427
 Frc consts  --      0.1572                 0.1399                 0.1509
 IR Inten    --      3.8844                 0.9345                12.3052

                     10                     11                     12
                      A                      A                      A
 Frequencies --    256.1792               273.0834               296.7792
 Red. masses --      1.1703                 4.2155                 5.5308
 Frc consts  --      0.0453                 0.1852                 0.2870
 IR Inten    --    103.4300                25.9613                 4.7940

                     13                     14                     15
                      A                      A                      A
 Frequencies --    323.9803               335.2825               351.1009
 Red. masses --      5.2790                 3.5522                 4.2781
 Frc consts  --      0.3265                 0.2353                 0.3107
 IR Inten    --      0.6811                29.5005                14.4810

                     16                     17                     18
                      A                      A                      A
 Frequencies --    403.4436               417.1682               429.2863
 Red. masses --      3.4335                 9.2085                 3.1798
 Frc consts  --      0.3293                 0.9442                 0.3453
 IR Inten    --     19.0595                15.5669                 2.5964

                     19                     20                     21
                      A                      A                      A
 Frequencies --    468.1089               531.1727               555.4639
 Red. masses --      1.2886                 5.1949                 6.7616
 Frc consts  --      0.1664                 0.8636                 1.2292
 IR Inten    --    105.8407                16.8122                 5.9906

                     22                     23                     24
                      A                      A                      A
 Frequencies --    579.1918               616.2328               628.8508
 Red. masses --      6.6600                 5.5026                 1.0949
 Frc consts  --      1.3163                 1.2311                 0.2551
 IR Inten    --     28.9895                 6.7058                66.4176

                     25                     26                     27
                      A                      A                      A
 Frequencies --    672.2165               700.4098               719.6747
 Red. masses --      5.9330                 1.2472                 4.4845
 Frc consts  --      1.5796                 0.3605                 1.3685
 IR Inten    --     16.0050                50.3647                 3.0387

                     28                     29                     30
                      A                      A                      A
 Frequencies --    728.0538               780.9028               782.5665
 Red. masses --      2.0115                 7.0757                 7.0090
 Frc consts  --      0.6282                 2.5422                 2.5290
 IR Inten    --      0.7880                44.4709                 7.7335

                     31                     32                     33
                      A                      A                      A
 Frequencies --    794.6602               829.8979               878.7145
 Red. masses --      7.4681                 2.2736                 3.2201
 Frc consts  --      2.7786                 0.9226                 1.4649
 IR Inten    --      9.7424                56.7965                13.0068

                     34                     35                     36
                      A                      A                      A
 Frequencies --    884.3341               911.4711               934.3772
 Red. masses --      3.8877                 2.4480                 2.3130
 Frc consts  --      1.7913                 1.1982                 1.1898
 IR Inten    --     28.3477                 1.2327                 9.2008

                     37                     38                     39
                      A                      A                      A
 Frequencies --    990.6993              1005.9063              1009.8449
 Red. masses --      2.5795                 1.2866                 2.6775
 Frc consts  --      1.4917                 0.7670                 1.6088
 IR Inten    --      2.4535                 3.8411                24.9892

                     40                     41                     42
                      A                      A                      A
 Frequencies --   1049.8521              1088.3029              1101.4198
 Red. masses --      2.0516                 2.5934                 2.0895
 Frc consts  --      1.3323                 1.8097                 1.4934
 IR Inten    --     14.8094                27.0290                15.0058

                     43                     44                     45
                      A                      A                      A
 Frequencies --   1126.9735              1136.2988              1160.9585
 Red. masses --      2.4280                 2.4884                 4.5725
 Frc consts  --      1.8169                 1.8930                 3.6311
 IR Inten    --     17.1265                90.2174               202.0116

                     46                     47                     48
                      A                      A                      A
 Frequencies --   1170.0763              1204.6184              1212.0794
 Red. masses --      3.0403                 2.7420                 1.2986
 Frc consts  --      2.4525                 2.3443                 1.1240
 IR Inten    --     91.4904                27.8012               107.2626

                     49                     50                     51
                      A                      A                      A
 Frequencies --   1234.9920              1247.2570              1273.8348
 Red. masses --      1.3300                 2.4300                 1.2698
 Frc consts  --      1.1952                 2.2273                 1.2140
 IR Inten    --     28.6815                31.5786                64.4117

                     52                     53                     54
                      A                      A                      A
 Frequencies --   1289.9621              1294.7209              1317.4859
 Red. masses --      1.2672                 1.6034                 1.4210
 Frc consts  --      1.2424                 1.5836                 1.4532
 IR Inten    --     16.7308               125.5073                 2.2831

                     55                     56                     57
                      A                      A                      A
 Frequencies --   1346.1878              1360.3381              1373.0688
 Red. masses --      1.3079                 1.4388                 1.3371
 Frc consts  --      1.3965                 1.5687                 1.4853
 IR Inten    --      6.0923                 4.5392                73.4448

                     58                     59                     60
                      A                      A                      A
 Frequencies --   1380.1805              1392.8173              1393.7696
 Red. masses --      1.2848                 1.4465                 1.4612
 Frc consts  --      1.4420                 1.6533                 1.6724
 IR Inten    --     44.3395                38.4092                49.2410

                     61                     62                     63
                      A                      A                      A
 Frequencies --   1408.6315              1427.1282              1433.1456
 Red. masses --      1.9843                 1.9701                 1.9280
 Frc consts  --      2.3198                 2.3640                 2.3331
 IR Inten    --      3.7450                20.9618                61.9551

                     64                     65                     66
                      A                      A                      A
 Frequencies --   1442.2047              1469.3932              1492.4251
 Red. masses --      2.2783                 1.0864                 5.9045
 Frc consts  --      2.7920                 1.3821                 7.7485
 IR Inten    --     49.3525                 5.6325               148.7541

                     67                     68                     69
                      A                      A                      A
 Frequencies --   1691.3694              1771.0616              1804.9306
 Red. masses --      6.9669                 8.3447                 9.7383
 Frc consts  --     11.7426                15.4216                18.6919
 IR Inten    --     64.4270               695.5208               701.3287

                     70                     71                     72
                      A                      A                      A
 Frequencies --   3044.2073              3054.8028              3067.4629
 Red. masses --      1.0646                 1.0855                 1.0863
 Frc consts  --      5.8128                 5.9685                 6.0224
 IR Inten    --     35.2443                24.1659                 2.7966

                     73                     74                     75
                      A                      A                      A
 Frequencies --   3076.9429              3102.0642              3117.5951
 Red. masses --      1.0864                 1.0877                 1.1012
 Frc consts  --      6.0600                 6.1667                 6.3061
 IR Inten    --     35.6231                22.2823                23.5602

                     76                     77                     78
                      A                      A                      A
 Frequencies --   3252.6922              3273.4354              3625.2455
 Red. masses --      1.0899                 1.0981                 1.0779
 Frc consts  --      6.7941                 6.9325                 8.3462
 IR Inten    --      9.5619                 1.1323                86.7935

                     79                     80                     81
                      A                      A                      A
 Frequencies --   3680.5474              3778.4669              3871.0579
 Red. masses --      1.0658                 1.0653                 1.0667
 Frc consts  --      8.5065                 8.9612                 9.4176
 IR Inten    --    330.2415                69.5213                57.0970

 - Thermochemistry -
 -------------------
 Temperature   298.150 Kelvin.  Pressure   1.00000 Atm.
 Atom     1 has atomic number  6 and mass  12.00000

 Molecular mass:   244.06954 amu.
 Principal axes and moments of inertia in atomic units:
                           1         2         3
     Eigenvalues --  2049.331445418.514156683.63568
           X            0.99997  -0.00670   0.00286
           Y            0.00669   0.99997   0.00390
           Z           -0.00288  -0.00388   0.99999
 This molecule is an asymmetric top.
 Rotational symmetry number  1.
 Warning -- assumption of classical behavior for rotation
           may cause significant error
 Rotational temperatures (Kelvin)      0.04226     0.01598     0.01296
 Rotational constants (GHZ):           0.88065     0.33307     0.27002
 Zero-point vibrational energy     599534.7 (Joules/Mol)
                                  143.29223 (Kcal/Mol)
 Warning -- explicit consideration of  23 degrees of freedom as
           vibrations may cause significant error
 Vibrational temperatures:     30.85    63.44   117.29   142.91   165.75
          (Kelvin)            234.74   251.42   268.91   314.99   368.58
                              392.91   427.00   466.14   482.40   505.16
                              580.47   600.21   617.65   673.50   764.24
                              799.19   833.33   886.62   904.78   967.17
                             1007.73  1035.45  1047.51  1123.54  1125.94
                             1143.34  1194.04  1264.27  1272.36  1311.40
                             1344.36  1425.40  1447.27  1452.94  1510.50
                             1565.83  1584.70  1621.46  1634.88  1670.36
                             1683.48  1733.18  1743.91  1776.88  1794.52
                             1832.76  1855.97  1862.81  1895.57  1936.86
                             1957.22  1975.54  1985.77  2003.95  2005.32
                             2026.71  2053.32  2061.98  2075.01  2114.13
                             2147.27  2433.50  2548.16  2596.89  4379.94
                             4395.18  4413.39  4427.03  4463.18  4485.52
                             4679.90  4709.74  5215.92  5295.49  5436.37
                             5569.59

 Zero-point correction=                           0.228351 (Hartree/Particle)
 Thermal correction to Energy=                    0.243395
 Thermal correction to Enthalpy=                  0.244339
 Thermal correction to Gibbs Free Energy=         0.185290
 Sum of electronic and zero-point Energies=           -909.993198
 Sum of electronic and thermal Energies=              -909.978153
 Sum of electronic and thermal Enthalpies=            -909.977209
 Sum of electronic and thermal Free Energies=         -910.036258

                     E (Thermal)             CV                S
                      KCal/Mol        Cal/Mol-Kelvin    Cal/Mol-Kelvin
 Total                  152.733             57.718            124.279
 Electronic               0.000              0.000              0.000
 Translational            0.889              2.981             42.378
 Rotational               0.889              2.981             32.673
 Vibrational            150.955             51.756             49.228
 Vibration     1          0.593              1.985              6.496
 Vibration     2          0.595              1.980              5.066
 Vibration     3          0.600              1.962              3.854
 Vibration     4          0.604              1.950              3.468
 Vibration     5          0.608              1.937              3.179
 Vibration     6          0.623              1.888              2.513
 Vibration     7          0.627              1.874              2.384
 Vibration     8          0.632              1.858              2.258
 Vibration     9          0.647              1.812              1.968
 Vibration    10          0.666              1.752              1.688
 Vibration    11          0.676              1.723              1.577
 Vibration    12          0.690              1.680              1.435
 Vibration    13          0.709              1.627              1.290
 Vibration    14          0.716              1.605              1.235
 Vibration    15          0.728              1.573              1.161
 Vibration    16          0.769              1.463              0.950
 Vibration    17          0.780              1.433              0.902
 Vibration    18          0.791              1.406              0.861
 Vibration    19          0.825              1.321              0.743
 Vibration    20          0.886              1.181              0.585
 Vibration    21          0.911              1.128              0.533
 Vibration    22          0.936              1.076              0.487
 Vibration    23          0.976              0.998              0.423

 Optimization completed.
    -- Stationary point found.
 Normal termination of Gaussian 16 at Thu Oct 17 12:33:57 2024.
